<preamble>

<basis_specs>
===============================================================================
Ir                   Z=  77    Mass=  192.22        Charge= 0.17977+309
Lmxo=2 Lmxkb= 3    BasisType=split      Semic=T
L=0  Nsemic=1  Cnfigmx=6
          i=1  nzeta=1  polorb=0  (5s)  (semicore shell)
            splnorm:   0.15000    
               vcte:    40.000    
               rinn:    2.2992    
               qcoe:    0.0000    
               qyuk:    0.0000    
               qwid:   0.10000E-01
                rcs:    2.5521    
            lambdas:    1.0000    
          i=2  nzeta=1  polorb=0  (6s)  (to be polarized non-perturbatively)
            splnorm:   0.15000    
               vcte:    40.000    
               rinn:    5.3806    
               qcoe:    0.0000    
               qyuk:    0.0000    
               qwid:   0.10000E-01
                rcs:    5.9724    
            lambdas:    1.0000    
L=1  Nsemic=1  Cnfigmx=6
          i=1  nzeta=1  polorb=0  (5p)  (semicore shell)
            splnorm:   0.15000    
               vcte:    40.000    
               rinn:    2.7078    
               qcoe:    0.0000    
               qyuk:    0.0000    
               qwid:   0.10000E-01
                rcs:    3.0087    
            lambdas:    1.0000    
          i=2  nzeta=1  polorb=0  (6p)  (non-perturbative polarization shell)
            splnorm:   0.15000    
               vcte:    40.000    
               rinn:    5.3806    
               qcoe:   0.19310-311
               qyuk:   0.19763-322
               qwid:   0.21220-312
                rcs:    5.9724    
            lambdas:    1.0000    
L=2  Nsemic=0  Cnfigmx=5
          i=1  nzeta=1  polorb=0  (5d)
            splnorm:   0.15000    
               vcte:    40.000    
               rinn:    4.3466    
               qcoe:    0.0000    
               qyuk:    0.0000    
               qwid:   0.10000E-01
                rcs:    4.8296    
            lambdas:    1.0000    
-------------------------------------------------------------------------------
L=0  Nkbl=2  erefs: 0.17977+309 0.17977+309
L=1  Nkbl=2  erefs: 0.17977+309 0.17977+309
L=2  Nkbl=1  erefs: 0.17977+309
L=3  Nkbl=1  erefs: 0.17977+309
===============================================================================
</basis_specs>

<pseudopotential_header>
 Ir pb nrl pcec
 ONCVPSP-3.2017-10-31Hamann's oncvpsp                        
 5s 2.00  r= 1.60/5p 6.00  r= 1.60/5d 7.00  r= 1.51/5f 0.00  r= 2.27/   5s:5p:5d:6s:
</pseudopotential_header>
</preamble>
Ir                            # Symbol
Ir                            # Label
   77                         # Atomic number
     17.0000000000                             # Valence charge
     192.220000000        # Mass 
     306.359764846        # Self energy 
   2   5                      # Lmax for basis, no. of nl orbitals 
   3   8                      # Lmax for projectors, no. of nl KB projectors
# PAOs:__________________________
  0  5  1  0  2.000000   #orbital l, n, z, is_polarized, population
 500    0.5114442101031531E-02     2.552106608414734     # npts, delta, cutoff
     0.000000000000000         1.140066278073182    
    0.5114442101031531E-02     1.140092757409609    
    0.1022888420206306E-01     1.140268801034320    
    0.1534332630309459E-01     1.140562113338555    
    0.2045776840412612E-01     1.140972474867225    
    0.2557221050515765E-01     1.141499597524514    
    0.3068665260618918E-01     1.142143114238253    
    0.3580109470722072E-01     1.142902577702360    
    0.4091553680825225E-01     1.143777460301541    
    0.4602997890928377E-01     1.144767154340793    
    0.5114442101031531E-01     1.145870972403934    
    0.5625886311134684E-01     1.147088147793017    
    0.6137330521237837E-01     1.148417835032322    
    0.6648774731340990E-01     1.149859110430377    
    0.7160218941444144E-01     1.151410972696966    
    0.7671663151547296E-01     1.153072343613408    
    0.8183107361650449E-01     1.154842068754956    
    0.8694551571753602E-01     1.156718918264473    
    0.9205995781856754E-01     1.158701587676596    
    0.9717439991959909E-01     1.160788698791625    
    0.1022888420206306         1.162978800598440    
    0.1074032841216621         1.165270370245687    
    0.1125177262226937         1.167661814060444    
    0.1176321683237252         1.170151468613611    
    0.1227466104247567         1.172737601831157    
    0.1278610525257883         1.175418414150391    
    0.1329754946268198         1.178192039720372    
    0.1380899367278513         1.181056547645522    
    0.1432043788288829         1.184009943271497    
    0.1483188209299144         1.187050169512349    
    0.1534332630309459         1.190175108217944    
    0.1585477051319774         1.193382581580619    
    0.1636621472330090         1.196670353579991    
    0.1687765893340405         1.200036131464833    
    0.1738910314350720         1.203477567270894    
    0.1790054735361036         1.206992259373502    
    0.1841199156371351         1.210577754073796    
    0.1892343577381666         1.214231547217377    
    0.1943487998391982         1.217951085844154    
    0.1994632419402297         1.221733769868165    
    0.2045776840412612         1.225576953786080    
    0.2096921261422928         1.229477948413136    
    0.2148065682433243         1.233434022645174    
    0.2199210103443558         1.237442405245485    
    0.2250354524453874         1.241500286655115    
    0.2301498945464189         1.245604820825287    
    0.2352643366474504         1.249753127070568    
    0.2403787787484819         1.253942291941419    
    0.2454932208495135         1.258169371114729    
    0.2506076629505450         1.262431391300931    
    0.2557221050515766         1.266725352166301    
    0.2608365471526081         1.271048228269026    
    0.2659509892536396         1.275396971007594    
    0.2710654313546711         1.279768510580111    
    0.2761798734557027         1.284159757953077    
    0.2812943155567342         1.288567606838210    
    0.2864087576577657         1.292988935675855    
    0.2915231997587973         1.297420609623556    
    0.2966376418598288         1.301859482548331    
    0.3017520839608603         1.306302399021215    
    0.3068665260618919         1.310746196312650    
    0.3119809681629234         1.315187706387257    
    0.3170954102639549         1.319623757896575    
    0.3222098523649864         1.324051178168348    
    0.3273242944660180         1.328466795190928    
    0.3324387365670495         1.332867439591393    
    0.3375531786680810         1.337249946605975    
    0.3426676207691126         1.341611158041411    
    0.3477820628701441         1.345947924225829    
    0.3528965049711756         1.350257105947817    
    0.3580109470722072         1.354535576382302    
    0.3631253891732387         1.358780223001918    
    0.3682398312742702         1.362987949472523    
    0.3733542733753017         1.367155677531573    
    0.3784687154763333         1.371280348848054    
    0.3835831575773648         1.375358926862703    
    0.3886975996783963         1.379388398607267    
    0.3938120417794279         1.383365776501570    
    0.3989264838804594         1.387288100127174    
    0.4040409259814909         1.391152437976461    
    0.4091553680825225         1.394955889175944    
    0.4142698101835540         1.398695585182706    
    0.4193842522845855         1.402368691452807    
    0.4244986943856170         1.405972409080611    
    0.4296131364866486         1.409503976407947    
    0.4347275785876801         1.412960670602072    
    0.4398420206887116         1.416339809201430    
    0.4449564627897432         1.419638751628228    
    0.4500709048907747         1.422854900666888    
    0.4551853469918062         1.425985703907439    
    0.4602997890928378         1.429028655152967    
    0.4654142311938693         1.431981295790282    
    0.4705286732949008         1.434841216122950    
    0.4756431153959323         1.437606056665915    
    0.4807575574969639         1.440273509400949    
    0.4858719995979954         1.442841318992194    
    0.4909864416990269         1.445307283961116    
    0.4961008838000585         1.447669257820208    
    0.5012153259010900         1.449925150164817    
    0.5063297680021215         1.452072927722509    
    0.5114442101031531         1.454110615359411    
    0.5165586522041846         1.456036297043038    
    0.5216730943052161         1.457848116761085    
    0.5267875364062476         1.459544279395779    
    0.5319019785072792         1.461123051553366    
    0.5370164206083107         1.462582762348339    
    0.5421308627093423         1.463921804142122    
    0.5472453048103738         1.465138633235883    
    0.5523597469114053         1.466231770517192    
    0.5574741890124368         1.467199802060359    
    0.5625886311134684         1.468041379680219    
    0.5677030732144999         1.468755221439237    
    0.5728175153155315         1.469340112107811    
    0.5779319574165630         1.469794903577706    
    0.5830463995175945         1.470118515228574    
    0.5881608416186260         1.470309934247571    
    0.5932752837196575         1.470368215902100    
    0.5983897258206891         1.470292483765742    
    0.6035041679217206         1.470081929897508    
    0.6086186100227522         1.469735814974540    
    0.6137330521237837         1.469253468378427    
    0.6188474942248152         1.468634288235406    
    0.6239619363258467         1.467877741410633    
    0.6290763784268782         1.466983363456851    
    0.6341908205279098         1.465950758517768    
    0.6393052626289414         1.464779599186489    
    0.6444197047299729         1.463469626319410    
    0.6495341468310044         1.462020648805967    
    0.6546485889320359         1.460432543294716    
    0.6597630310330674         1.458705253876222    
    0.6648774731340990         1.456838791723278    
    0.6699919152351305         1.454833234688982    
    0.6751063573361621         1.452688726863283    
    0.6802207994371936         1.450405478088578    
    0.6853352415382251         1.447983763435003    
    0.6904496836392566         1.445423922636085    
    0.6955641257402881         1.442726359485451    
    0.7006785678413197         1.439891541195301    
    0.7057930099423513         1.436919997717406    
    0.7109074520433828         1.433812321027392    
    0.7160218941444143         1.430569164373106    
    0.7211363362454458         1.427191241487881    
    0.7262507783464773         1.423679325769553    
    0.7313652204475088         1.420034249426096    
    0.7364796625485404         1.416256902588724    
    0.7415941046495720         1.412348232393424    
    0.7467085467506035         1.408309242031798    
    0.7518229888516350         1.404140989772183    
    0.7569374309526665         1.399844587952002    
    0.7620518730536980         1.395421201942334    
    0.7671663151547296         1.390872049085681    
    0.7722807572557612         1.386198397691128    
    0.7773951993567927         1.381401565794226    
    0.7825096414578242         1.376482919900721    
    0.7876240835588557         1.371443874116335    
    0.7927385256598872         1.366285888840939    
    0.7978529677609187         1.361010469567252    
    0.8029674098619504         1.355619165660055    
    0.8080818519629819         1.350113569117007    
    0.8131962940640134         1.344495313312182    
    0.8183107361650449         1.338766071723420    
    0.8234251782660764         1.332927556644603    
    0.8285396203671079         1.326981517883942    
    0.8336540624681394         1.320929741449423    
    0.8387685045691711         1.314774048222490    
    0.8438829466702026         1.308516292621113    
    0.8489973887712341         1.302158361253326    
    0.8541118308722656         1.295702171562361    
    0.8592262729732971         1.289149670464503    
    0.8643407150743286         1.282502832980752    
    0.8694551571753603         1.275763660863408    
    0.8745695992763918         1.268934181218679    
    0.8796840413774233         1.262016445126406    
    0.8847984834784548         1.255012526257977    
    0.8899129255794863         1.247924519493541    
    0.8950273676805178         1.240754539539554    
    0.9001418097815495         1.233504719547750    
    0.9052562518825810         1.226177209736548    
    0.9103706939836125         1.218774176015986    
    0.9154851360846440         1.211297798617142    
    0.9205995781856755         1.203750270727125    
    0.9257140202867070         1.196133797130574    
    0.9308284623877385         1.188450592858675    
    0.9359429044887702         1.180702881846648    
    0.9410573465898017         1.172892895600679    
    0.9461717886908332         1.165022871875214    
    0.9512862307918647         1.157095053361517    
    0.9564006728928962         1.149111686388405    
    0.9615151149939277         1.141075019636024    
    0.9666295570949593         1.132987302863528    
    0.9717439991959909         1.124850785651500    
    0.9768584412970224         1.116667716159911    
    0.9819728833980539         1.108440339902401    
    0.9870873254990854         1.100170898537699    
    0.9922017676001169         1.091861628678847    
    0.9973162097011484         1.083514760721015    
     1.002430651802180         1.075132517688564    
     1.007545093903212         1.066717114102026    
     1.012659536004243         1.058270754865688    
     1.017773978105275         1.049795634176335    
     1.022888420206306         1.041293934453793    
     1.028002862307338         1.032767825293780    
     1.033117304408369         1.024219462443669    
     1.038231746509401         1.015650986801654    
     1.043346188610432         1.007064523439757    
     1.048460630711464        0.9984621806512028    
     1.053575072812495        0.9898460490224968    
     1.058689514913527        0.9812182005306989    
     1.063803957014558        0.9725806876662063    
     1.068918399115590        0.9639355425813854    
     1.074032841216621        0.9552847762654050    
     1.079147283317653        0.9466303777454721    
     1.084261725418685        0.9379743133148459    
     1.089376167519716        0.9293185257877649    
     1.094490609620748        0.9206649337815008    
     1.099605051721779        0.9120154310257280    
     1.104719493822811        0.9033718856992862    
     1.109833935923842        0.8947361397945663    
     1.114948378024874        0.8861100085095037    
     1.120062820125905        0.8774952796672675    
     1.125177262226937        0.8688937131636596    
     1.130291704327968        0.8603070404422298    
     1.135406146429000        0.8517369639970914    
     1.140520588530031        0.8431851569033751    
     1.145635030631063        0.8346532623752296    
     1.150749472732094        0.8261428933512852    
     1.155863914833126        0.8176556321074155    
     1.160978356934157        0.8091930298966747    
     1.166092799035189        0.8007566066161882    
     1.171207241136220        0.7923478505008241    
     1.176321683237252        0.7839682178433901    
     1.181436125338284        0.7756191327411137    
     1.186550567439315        0.7673019868681293    
     1.191665009540347        0.7590181392736550    
     1.196779451641378        0.7507689162055595    
     1.201893893742410        0.7425556109589805    
     1.207008335843441        0.7343794837495909    
     1.212122777944473        0.7262417616111758    
     1.217237220045504        0.7181436383171260    
     1.222351662146536        0.7100862743253489    
     1.227466104247567        0.7020707967462837    
     1.232580546348599        0.6940982993334683    
     1.237694988449630        0.6861698424962013    
     1.242809430550662        0.6782864533338971    
     1.247923872651693        0.6704491256915259    
     1.253038314752725        0.6626588202356768    
     1.258152756853756        0.6549164645507766    
     1.263267198954788        0.6472229532548089    
     1.268381641055820        0.6395791481340499    
     1.273496083156851        0.6319858782963395    
     1.278610525257883        0.6244439403421446    
     1.283724967358914        0.6169540985529809    
     1.288839409459946        0.6095170850966144    
     1.293953851560977        0.6021336002483313    
     1.299068293662009        0.5948043126277712    
     1.304182735763040        0.5875298594507851    
     1.309297177864072        0.5803108467955336    
     1.314411619965103        0.5731478498823734    
     1.319526062066135        0.5660414133669108    
     1.324640504167166        0.5589920516454971    
     1.329754946268198        0.5520002491726397    
     1.334869388369230        0.5450664607897618    
     1.339983830470261        0.5381911120645818    
     1.345098272571293        0.5313745996405681    
     1.350212714672324        0.5246172915959205    
     1.355327156773356        0.5179195278113412    
     1.360441598874387        0.5112816203460857    
     1.365556040975419        0.5047038538217099    
     1.370670483076450        0.4981864858128701    
     1.375784925177482        0.4917297472446240    
     1.380899367278513        0.4853338427956609    
     1.386013809379545        0.4789989513069062    
     1.391128251480576        0.4727252261948921    
     1.396242693581608        0.4665127958693877    
     1.401357135682639        0.4603617641547776    
     1.406471577783671        0.4542722107145745    
     1.411586019884703        0.4482441914786285    
     1.416700461985734        0.4422777390725149    
     1.421814904086766        0.4363728632485575    
     1.426929346187797        0.4305295513180650    
     1.432043788288829        0.4247477685842840    
     1.437158230389860        0.4190274587756385    
     1.442272672490892        0.4133685444788099    
     1.447387114591923        0.4077709275712730    
     1.452501556692955        0.4022344896528028    
     1.457615998793986        0.3967590924754035    
     1.462730440895018        0.3913445783705221    
     1.467844882996049        0.3859907706790059    
     1.472959325097081        0.3806974741717731    
     1.478073767198112        0.3754644754697935    
     1.483188209299144        0.3702915434634584    
     1.488302651400175        0.3651784297297432    
     1.493417093501207        0.3601248689397308    
     1.498531535602238        0.3551305792741712    
     1.503645977703270        0.3501952628017191    
     1.508760419804302        0.3453186059000872    
     1.513874861905333        0.3405002796489087    
     1.518989304006365        0.3357399402127193    
     1.524103746107396        0.3310372292180961    
     1.529218188208428        0.3263917741433456    
     1.534332630309459        0.3218031886697166    
     1.539447072410491        0.3172710731053606    
     1.544561514511522        0.3127950147008538    
     1.549675956612554        0.3083745880129239    
     1.554790398713585        0.3040093552117261    
     1.559904840814617        0.2996988664216400    
     1.565019282915648        0.2954426602098882    
     1.570133725016680        0.2912402639918042    
     1.575248167117711        0.2870911945783411    
     1.580362609218743        0.2829949580942105    
     1.585477051319774        0.2789510496941729    
     1.590591493420806        0.2749589536247431    
     1.595705935521837        0.2710181434960184    
     1.600820377622869        0.2671280840013194    
     1.605934819723901        0.2632882328974274    
     1.611049261824932        0.2594980430835136    
     1.616163703925964        0.2557569647323995    
     1.621278146026995        0.2520644474558875    
     1.626392588128027        0.2484199421292893    
     1.631507030229058        0.2448229027132335    
     1.636621472330090        0.2412727870633899    
     1.641735914431121        0.2377690566758733    
     1.646850356532153        0.2343111765391900    
     1.651964798633184        0.2308986145160706    
     1.657079240734216        0.2275308413972011    
     1.662193682835247        0.2242073311722892    
     1.667308124936279        0.2209275611459581    
     1.672422567037311        0.2176910121382788    
     1.677537009138342        0.2144971685225115    
     1.682651451239374        0.2113455182530150    
     1.687765893340405        0.2082355529248325    
     1.692880335441437        0.2051667678265264    
     1.697994777542468        0.2021386619929058    
     1.703109219643500        0.1991507382519256    
     1.708223661744531        0.1962025032680782    
     1.713338103845563        0.1932934675826943    
     1.718452545946594        0.1904231456503622    
     1.723566988047626        0.1875910558724345    
     1.728681430148657        0.1847967206273979    
     1.733795872249689        0.1820396662979425    
     1.738910314350721        0.1793194232955578    
     1.744024756451752        0.1766355260820891    
     1.749139198552784        0.1739875131886825    
     1.754253640653815        0.1713749272319975    
     1.759368082754847        0.1687973149281997    
     1.764482524855878        0.1662542271044345    
     1.769596966956910        0.1637452187080743    
     1.774711409057941        0.1612698488136068    
     1.779825851158973        0.1588276806276634    
     1.784940293260004        0.1564182814919094    
     1.790054735361036        0.1540412228840373    
     1.795169177462067        0.1516960804167832    
     1.800283619563099        0.1493824338353332    
     1.805398061664130        0.1470998670129706    
     1.810512503765162        0.1448479679450988    
     1.815626945866193        0.1426263287416502    
     1.820741387967225        0.1404345456180444    
     1.825855830068256        0.1382722188847864    
     1.830970272169288        0.1361389529356355    
     1.836084714270320        0.1340343562344943    
     1.841199156371351        0.1319580413009898    
     1.846313598472383        0.1299096246950254    
     1.851428040573414        0.1278887270000998    
     1.856542482674446        0.1258949728055968    
     1.861656924775477        0.1239279906879626    
     1.866771366876509        0.1219874131910610    
     1.871885808977540        0.1200728768055215    
     1.877000251078572        0.1181840219472410    
     1.882114693179603        0.1163204929350032    
     1.887229135280635        0.1144819379673727    
     1.892343577381666        0.1126680090988414    
     1.897458019482698        0.1108783622152560    
     1.902572461583729        0.1091126570085829    
     1.907686903684761        0.1073705569510166    
     1.912801345785792        0.1056517292685746    
     1.917915787886824        0.1039558449140812    
     1.923030229987855        0.1022825785396524    
     1.928144672088887        0.1006316084686697    
     1.933259114189919        0.9900261666732613E-01
     1.938373556290950        0.9739528871573777E-01
     1.943487998391982        0.9580931377865529E-01
     1.948602440493013        0.9424438457580846E-01
     1.953716882594045        0.9270019735189508E-01
     1.958831324695076        0.9117645184628850E-01
     1.963945766796108        0.8967285126242967E-01
     1.969060208897139        0.8818910223695642E-01
     1.974174650998171        0.8672491480860470E-01
     1.979289093099202        0.8528000238686946E-01
     1.984403535200234        0.8385408172047354E-01
     1.989517977301265        0.8244687286565920E-01
     1.994632419402297        0.8105809915431747E-01
     1.999746861503328        0.7968748716199782E-01
     2.004861303604360        0.7833476667576070E-01
     2.009975745705392        0.7699967066195096E-01
     2.015090187806423        0.7568193523387179E-01
     2.020204629907455        0.7438129961940440E-01
     2.025319072008486        0.7309750612856970E-01
     2.030433514109518        0.7183030012101795E-01
     2.035547956210549        0.7057942997352144E-01
     2.040662398311581        0.6934464704743595E-01
     2.045776840412612        0.6812570565620482E-01
     2.050891282513644        0.6692236303281981E-01
     2.056005724614675        0.6573437929732331E-01
     2.061120166715707        0.6456151742435282E-01
     2.066234608816738        0.6340354321071420E-01
     2.071349050917770        0.6226022524307900E-01
     2.076463493018801        0.6113133486564373E-01
     2.081577935119833        0.6001664614792375E-01
     2.086692377220865        0.5891593585262157E-01
     2.091806819321896        0.5782898340357669E-01
     2.096921261422928        0.5675557085388364E-01
     2.102035703523959        0.5569548285400060E-01
     2.107150145624991        0.5464850662005219E-01
     2.112264587726022        0.5361443190223168E-01
     2.117379029827054        0.5259305095333223E-01
     2.122493471928085        0.5158415849747004E-01
     2.127607914029117        0.5058755169883233E-01
     2.132722356130148        0.4960303013065497E-01
     2.137836798231180        0.4863039574432547E-01
     2.142951240332212        0.4766945283864449E-01
     2.148065682433243        0.4672000802930174E-01
     2.153180124534274        0.4578187021840169E-01
     2.158294566635306        0.4485485056424465E-01
     2.163409008736338        0.4393876245125111E-01
     2.168523450837369        0.4303342146006513E-01
     2.173637892938400        0.4213864533789317E-01
     2.178752335039432        0.4125425396890738E-01
     2.183866777140464        0.4038006934492030E-01
     2.188981219241495        0.3951591553622220E-01
     2.194095661342527        0.3866161866260104E-01
     2.199210103443558        0.3781700686462069E-01
     2.204324545544590        0.3698191027497308E-01
     2.209438987645621        0.3615616099010829E-01
     2.214553429746653        0.3533959304204127E-01
     2.219667871847684        0.3453204237034386E-01
     2.224782313948716        0.3373334679440478E-01
     2.229896756049747        0.3294334598577967E-01
     2.235011198150779        0.3216188144081197E-01
     2.240125640251811        0.3138879645344299E-01
     2.245240082352842        0.3062393608820752E-01
     2.250354524453873        0.2986714715349310E-01
     2.255468966554905        0.2911827817492033E-01
     2.260583408655937        0.2837717936896621E-01
     2.265697850756968        0.2764370261679042E-01
     2.270812292857999        0.2691770143825264E-01
     2.275926734959031        0.2619903096616617E-01
     2.281041177060063        0.2548754792072178E-01
     2.286155619161094        0.2478311058410973E-01
     2.291270061262126        0.2408557877536174E-01
     2.296384503363157        0.2339481382538555E-01
     2.301498945464189        0.2271067855220236E-01
     2.306613387565220        0.2203303723640306E-01
     2.311727829666252        0.2136175559675903E-01
     2.316842271767283        0.2069670076804681E-01
     2.321956713868315        0.2003774139063075E-01
     2.327071155969346        0.1938474897323851E-01
     2.332185598070378        0.1873760398991150E-01
     2.337300040171410        0.1809620931156049E-01
     2.342414482272441        0.1746050848943186E-01
     2.347528924373472        0.1683050336848445E-01
     2.352643366474504        0.1620626666582795E-01
     2.357757808575536        0.1558794784137693E-01
     2.362872250676567        0.1497577266624005E-01
     2.367986692777599        0.1437003789154982E-01
     2.373101134878630        0.1377110263426386E-01
     2.378215576979662        0.1317937791185863E-01
     2.383330019080693        0.1259531543595646E-01
     2.388444461181725        0.1201939645078389E-01
     2.393558903282756        0.1145212113018763E-01
     2.398673345383788        0.1089399883934883E-01
     2.403787787484819        0.1034553941844986E-01
     2.408902229585851        0.9807245543998280E-02
     2.414016671686882        0.9279606157386549E-02
     2.419131113787914        0.8763090909539278E-02
     2.424245555888946        0.8258145547331914E-02
     2.429359997989977        0.7765188156091336E-02
     2.434474440091009        0.7284606168745784E-02
     2.439588882192040        0.6816754053202466E-02
     2.444703324293072        0.6361951593300126E-02
     2.449817766394103        0.5920482683854387E-02
     2.454932208495135        0.5492594565960437E-02
     2.460046650596166        0.5078497434191252E-02
     2.465161092697198        0.4678364352140692E-02
     2.470275534798229        0.4292331416478353E-02
     2.475389976899261        0.3920498111821076E-02
     2.480504419000293        0.3562927798670059E-02
     2.485618861101324        0.3219648273391621E-02
     2.490733303202355        0.2890652331134326E-02
     2.495847745303387        0.2575898246795900E-02
     2.500962187404419        0.2275310060504606E-02
     2.506076629505450        0.1988777502760870E-02
     2.511191071606481        0.1716155300938325E-02
     2.516305513707513        0.1457261432375481E-02
     2.521419955808545        0.1211873537905956E-02
     2.526534397909576        0.9797219583723598E-03
     2.531648840010608        0.7604760928667126E-03
     2.536763282111639        0.5537160818153764E-03
     2.541877724212671        0.3588668748228566E-03
     2.546992166313702        0.1750087297418254E-03
     2.552106608414734         0.000000000000000    
  0  6  1  0  2.000000   #orbital l, n, z, is_polarized, population
 500    0.1196883325093328E-01     5.972447792215706     # npts, delta, cutoff
     0.000000000000000        0.8219751312755020    
    0.1196883325093328E-01    0.8220545363581599    
    0.2393766650186656E-01    0.8223614539944544    