<preamble>

<basis_specs>
===============================================================================
O                    Z=   8    Mass=  15.999        Charge= 0.17977+309
Lmxo=2 Lmxkb= 2    BasisType=split      Semic=F
L=0  Nsemic=0  Cnfigmx=2
          i=1  nzeta=1  polorb=0  (2s)
            splnorm:   0.15000    
               vcte:    40.000    
               rinn:    3.1824    
               qcoe:    0.0000    
               qyuk:    0.0000    
               qwid:   0.10000E-01
                rcs:    3.5325    
            lambdas:    1.0000    
L=1  Nsemic=0  Cnfigmx=2
          i=1  nzeta=1  polorb=1  (2p)  (to be polarized perturbatively)
            splnorm:   0.15000    
               vcte:    40.000    
               rinn:    3.8735    
               qcoe:    0.0000    
               qyuk:    0.0000    
               qwid:   0.10000E-01
                rcs:    4.2995    
            lambdas:    1.0000    
L=2  Nsemic=0  Cnfigmx=3
          i=1  nzeta=0  polorb=0  (3d)  (perturbative polarization orbital) (from 2p)
-------------------------------------------------------------------------------
L=0  Nkbl=1  erefs: 0.17977+309
L=1  Nkbl=1  erefs: 0.17977+309
L=2  Nkbl=1  erefs: 0.17977+309
===============================================================================
</basis_specs>

<pseudopotential_header>
 O  pb nrl pcec
 ONCVPSP-3.2017-10-31Hamann's oncvpsp                        
 2s 2.00  r= 1.36/2p 4.00  r= 1.46/3d 0.00  r= 1.26/                    2s:2p:
</pseudopotential_header>
</preamble>
O                             # Symbol
O                             # Label
    8                         # Atomic number
     6.00000000000                             # Valence charge
     15.9990000000        # Mass 
     48.1918778057        # Self energy 
   2   3                      # Lmax for basis, no. of nl orbitals 
   2   5                      # Lmax for projectors, no. of nl KB projectors
# PAOs:__________________________
  0  2  1  0  2.000000   #orbital l, n, z, is_polarized, population
 500    0.7079137881117544E-02     3.532489802677655     # npts, delta, cutoff
     0.000000000000000         1.373911247028831    
    0.7079137881117544E-02     1.373917245997095    
    0.1415827576223509E-01     1.373976313341614    
    0.2123741364335263E-01     1.374074572188045    
    0.2831655152447018E-01     1.374211718428720    
    0.3539568940558772E-01     1.374387332621466    
    0.4247482728670526E-01     1.374600877241228    
    0.4955396516782281E-01     1.374851696843906    
    0.5663310304894036E-01     1.375139018716743    
    0.6371224093005790E-01     1.375461953746210    
    0.7079137881117545E-01     1.375819497449988    
    0.7787051669229299E-01     1.376210531158957    
    0.8494965457341053E-01     1.376633823344895    
    0.9202879245452808E-01     1.377088031092616    
    0.9910793033564562E-01     1.377571701716357    
    0.1061870682167632         1.378083274520561    
    0.1132662060978807         1.378621082705411    
    0.1203453439789983         1.379183355417383    
    0.1274244818601158         1.379768219945082    
    0.1345036197412333         1.380373704060466    
    0.1415827576223509         1.380997738505425    
    0.1486618955034684         1.381638159623467    
    0.1557410333845860         1.382292712136094    
    0.1628201712657035         1.382959052063154    
    0.1698993091468211         1.383634749786144    
    0.1769784470279386         1.384317293253296    
    0.1840575849090562         1.385004091324707    
    0.1911367227901737         1.385692477255630    
    0.1982158606712912         1.386379712315589    
    0.2052949985524088         1.387062989540555    
    0.2123741364335263         1.387739437615059    
    0.2194532743146439         1.388406124880677    
    0.2265324121957614         1.389060063466879    
    0.2336115500768790         1.389698213539739    
    0.2406906879579965         1.390317487663661    
    0.2477698258391141         1.390914755270638    
    0.2548489637202316         1.391486847231280    
    0.2619281016013492         1.392030560521189    
    0.2690072394824667         1.392542662975969    
    0.2760863773635842         1.393019898127604    
    0.2831655152447018         1.393458990114448    
    0.2902446531258193         1.393856648656816    
    0.2973237910069368         1.394209574089506    
    0.3044029288880544         1.394514462442365    
    0.3114820667691720         1.394768010559594    
    0.3185612046502895         1.394966921248068    
    0.3256403425314071         1.395107908444702    
    0.3327194804125246         1.395187702392541    
    0.3397986182936421         1.395203054815081    
    0.3468777561747597         1.395150744077996    
    0.3539568940558772         1.395027580327288    
    0.3610360319369948         1.394830410592859    
    0.3681151698181123         1.394556123846166    
    0.3751943076992298         1.394201656000766    
    0.3822734455803474         1.393763994844456    
    0.3893525834614650         1.393240184891688    
    0.3964317213425825         1.392627332145175    
    0.4035108592237001         1.391922608755515    
    0.4105899971048176         1.391123257567992    
    0.4176691349859351         1.390226596545893    
    0.4247482728670527         1.389230023059821    
    0.4318274107481702         1.388131018033020    
    0.4389065486292877         1.386927149932804    
    0.4459856865104053         1.385616078598826    
    0.4530648243915228         1.384195558899209    
    0.4601439622726404         1.382663444206036    
    0.4672231001537580         1.381017689682284    
    0.4743022380348755         1.379256355372858    
    0.4813813759159930         1.377377609092731    
    0.4884605137971106         1.375379729106228    
    0.4955396516782281         1.373261106591603    
    0.5026187895593457         1.371020247886285    
    0.5096979274404632         1.368655776508293    
    0.5167770653215807         1.366166434950574    
    0.5238562032026983         1.363551086245261    
    0.5309353410838158         1.360808715295831    
    0.5380144789649334         1.357938429975869    
    0.5450936168460510         1.354939461993827    
    0.5521727547271684         1.351811167523800    
    0.5592518926082860         1.348553027603393    
    0.5663310304894036         1.345164648300070    
    0.5734101683705211         1.341645760648438    
    0.5804893062516386         1.337996220361368    
    0.5875684441327562         1.334216007318757    
    0.5946475820138737         1.330305224838196    
    0.6017267198949913         1.326264098732533    
    0.6088058577761088         1.322092976159968    
    0.6158849956572263         1.317792324272812    
    0.6229641335383439         1.313362728671650    
    0.6300432714194615         1.308804891672080    
    0.6371224093005790         1.304119630391760    
    0.6442015471816965         1.299307874665844    
    0.6512806850628141         1.294370664799301    
    0.6583598229439316         1.289309149165005    
    0.6654389608250492         1.284124581656658    
    0.6725180987061667         1.278818319005980    
    0.6795972365872842         1.273391817973789    
    0.6866763744684018         1.267846632424649    
    0.6937555123495194         1.262184410295011    
    0.7008346502306370         1.256406890464744    
    0.7079137881117544         1.250515899542026    
    0.7149929259928720         1.244513348571521    
    0.7220720638739896         1.238401229672033    
    0.7291512017551071         1.232181613413828    
    0.7362303396362246         1.225856643039408    
    0.7433094775173422         1.219428533171014    
    0.7503886153984597         1.212899565655434    
    0.7574677532795773         1.206272085955333    
    0.7645468911606949         1.199548499587111    
    0.7716260290418123         1.192731268555527    
    0.7787051669229299         1.185822907792932    
    0.7857843048040475         1.178825981610699    
    0.7928634426851650         1.171743100169913    
    0.7999425805662825         1.164576915978029    
    0.8070217184474001         1.157330120417665    
    0.8141008563285176         1.150005440313432    
    0.8211799942096352         1.142605634542039    
    0.8282591320907527         1.135133490690574    
    0.8353382699718702         1.127591821767224    
    0.8424174078529878         1.119983462968520    
    0.8494965457341054         1.112311268506404    
    0.8565756836152228         1.104578108498081    
    0.8636548214963404         1.096786865921206    
    0.8707339593774580         1.088940433636509    
    0.8778130972585755         1.081041711479381    
    0.8848922351396931         1.073093603421659    
    0.8919713730208106         1.065099014804576    
    0.8990505109019281         1.057060849643116    
    0.9061296487830457         1.048982008001932    
    0.9132087866641633         1.040865383442729    
    0.9202879245452807         1.032713860542367    
    0.9273670624263983         1.024530312481010    
    0.9344462003075159         1.016317598699274    
    0.9415253381886334         1.008078562623000    
    0.9486044760697510        0.9998160294543451    
    0.9556836139508685        0.9915328040274558    
    0.9627627518319860        0.9832316687270879    
    0.9698418897131036        0.9749153814683145    
    0.9769210275942212        0.9665866737353703    
    0.9840001654753386        0.9582482486779131    
    0.9910793033564562        0.9499027792624442    
    0.9981584412375738        0.9415529064773619    
     1.005237579118691        0.9332012375895303    
     1.012316716999809        0.9248503444505415    
     1.019395854880926        0.9165027618514060    
     1.026474992762044        0.9081609859233730    
     1.033554130643161        0.8998274725843335    
     1.040633268524279        0.8915046360287134    
     1.047712406405397        0.8831948472602443    
     1.054791544286514        0.8749004326668000    
     1.061870682167632        0.8666236726358378    
     1.068949820048749        0.8583668002111635    
     1.076028957929867        0.8501319997892091    
     1.083108095810984        0.8419214058563300    
     1.090187233692102        0.8337371017658676    
     1.097266371573219        0.8255811185563471    
     1.104345509454337        0.8174554338108108    
     1.111424647335455        0.8093619705582187    
     1.118503785216572        0.8013025962181179    
     1.125582923097689        0.7932791215892558    
     1.132662060978807        0.7852932998843271    
     1.139741198859925        0.7773468258112822    
     1.146820336741042        0.7694413347041169    
     1.153899474622160        0.7615784017037385    
     1.160978612503277        0.7537595409920619    
     1.168057750384395        0.7459862050802831    
     1.175136888265512        0.7382597841544498    
     1.182216026146630        0.7305816054795973    
     1.189295164027747        0.7229529328653990    
     1.196374301908865        0.7153749661951835    
     1.203453439789983        0.7078488410207673    
     1.210532577671100        0.7003756282250742    
     1.217611715552218        0.6929563337547648    
     1.224690853433335        0.6855918984251966    
     1.231769991314453        0.6782831977992209    
     1.238849129195570        0.6710310421421706    
     1.245928267076688        0.6638361764540895    
     1.253007404957805        0.6566992805816007    
     1.260086542838923        0.6496209694097841    
     1.267165680720040        0.6426017931362188    
     1.274244818601158        0.6356422376271197    
     1.281323956482276        0.6287427248572282    
     1.288403094363393        0.6219036134330636    
     1.295482232244511        0.6151251992004724    
     1.302561370125628        0.6084077159361189    
     1.309640508006746        0.6017513361197130    
     1.316719645887863        0.5951561717020858    
     1.323798783768981        0.5886222751383900    
     1.330877921650098        0.5821496409817528    
     1.337957059531216        0.5757382067975657    
     1.345036197412333        0.5693878519634252    
     1.352115335293451        0.5630983986631403    
     1.359194473174568        0.5568696197335148    
     1.366273611055686        0.5507012501223092    
     1.373352748936804        0.5445929992257059    
     1.380431886817921        0.5385445622893543    
     1.387511024699039        0.5325556269998382    
     1.394590162580156        0.5266258729909900    
     1.401669300461274        0.5207549697975951    
     1.408748438342391        0.5149425773984209    
     1.415827576223509        0.5091883473631762    
     1.422906714104627        0.5034919235515032    
     1.429985851985744        0.4978529425197811    
     1.437064989866861        0.4922710339905784    
     1.444144127747979        0.4867458212937097    
     1.451223265629097        0.4812769218943879    
     1.458302403510214        0.4758639477452842    
     1.465381541391332        0.4705065057215409    
     1.472460679272449        0.4652041980723661    
     1.479539817153567        0.4599566228490773    
     1.486618955034684        0.4547633739682560    
     1.493698092915802        0.4496240418172292    
     1.500777230796919        0.4445382135693806    
     1.507856368678037        0.4395054735163501    
     1.514935506559155        0.4345254032913739    
     1.522014644440272        0.4295975822018435    
     1.529093782321390        0.4247215875128129    
     1.536172920202507        0.4198969947111018    
     1.543252058083625        0.4151233777609708    
     1.550331195964742        0.4104003093480988    
     1.557410333845860        0.4057273611137777    
     1.564489471726977        0.4011041038782246    
     1.571568609608095        0.3965301078537530    
     1.578647747489212        0.3920049428481925    
     1.585726885370330        0.3875281784591544    
     1.592806023251448        0.3830993842591915    
     1.599885161132565        0.3787181299723760    
     1.606964299013683        0.3743839856426665    
     1.614043436894800        0.3700965217941289    
     1.621122574775918        0.3658553095836662    
     1.628201712657035        0.3616599209463277    
     1.635280850538153        0.3575099287334258    
     1.642359988419270        0.3534049068440208    
     1.649439126300388        0.3493444303496825    
     1.656518264181505        0.3453280756130564    
     1.663597402062623        0.3413554204009653    
     1.670676539943740        0.3374260439903171    
     1.677755677824858        0.3335395272691064    
     1.684834815705976        0.3296954528301856    
     1.691913953587093        0.3258934050682167    
     1.698993091468211        0.3221329702611588    
     1.706072229349328        0.3184137366542085    
     1.713151367230446        0.3147352945259873    
     1.720230505111563        0.3110972362706617    
     1.727309642992681        0.3074991564647074    
     1.734388780873798        0.3039406519275579    
     1.741467918754916        0.3004213217808808    
     1.748547056636033        0.2969407674988653    
     1.755626194517151        0.2934985929973980    
     1.762705332398269        0.2900944046325891    
     1.769784470279386        0.2867278112669466    
     1.776863608160504        0.2833984243163609    
     1.783942746041621        0.2801058577890135    
     1.791021883922739        0.2768497283208233    
     1.798101021803856        0.2736296552081034    
     1.805180159684974        0.2704452604393281    
     1.812259297566091        0.2672961687242026    
     1.819338435447209        0.2641820075202603    
     1.826417573328327        0.2611024070568238    
     1.833496711209444        0.2580570003567826    
     1.840575849090561        0.2550454232562331    
     1.847654986971679        0.2520673144221011    
     1.854734124852797        0.2491223153677808    
     1.861813262733914        0.2462100704668990    
     1.868892400615032        0.2433302269652823    
     1.875971538496149        0.2404824349912089    
     1.883050676377267        0.2376663475640078    
     1.890129814258384        0.2348816206010968    
     1.897208952139502        0.2321279129235198    
     1.904288090020619        0.2294048862600425    
     1.911367227901737        0.2267122052498903    
     1.918446365782855        0.2240495374441765    
     1.925525503663972        0.2214165533060816    
     1.932604641545090        0.2188129262098502    
     1.939683779426207        0.2162383324386492    
     1.946762917307325        0.2136924511813523    
     1.953842055188442        0.2111749645282901    
     1.960921193069560        0.2086855574660255    
     1.968000330950677        0.2062239178711968    
     1.975079468831795        0.2037897365034710    
     1.982158606712912        0.2013827069976585    
     1.989237744594030        0.1990025258550258    
     1.996316882475148        0.1966488924338477    
     2.003396020356265        0.1943215089392371    
     2.010475158237383        0.1920200804122933    
     2.017554296118500        0.1897443147185985    
     2.024633433999618        0.1874939225361020    
     2.031712571880735        0.1852686173424247    
     2.038791709761853        0.1830681154016115    
     2.045870847642970        0.1808921357503654    
     2.052949985524088        0.1787404001837934    
     2.060029123405205        0.1766126332406914    
     2.067108261286323        0.1745085621883889    
     2.074187399167441        0.1724279170071920    
     2.081266537048558        0.1703704303744384    
     2.088345674929676        0.1683358376481917    
     2.095424812810793        0.1663238768506004    
     2.102503950691911        0.1643342886509396    
     2.109583088573028        0.1623668163483596    
     2.116662226454146        0.1604212058543583    
     2.123741364335263        0.1584972056749999    
     2.130820502216381        0.1565945668928959    
     2.137899640097499        0.1547130431489692    
     2.144978777978616        0.1528523906240145    
     2.152057915859733        0.1510123680200720    
     2.159137053740851        0.1491927365416352    
     2.166216191621968        0.1473932598767007    
     2.173295329503086        0.1456137041776764    
     2.180374467384204        0.1438538380421658    
     2.187453605265321        0.1421134324936368    
     2.194532743146439        0.1403922609619885    
     2.201611881027556        0.1386900992640302    
     2.208691018908674        0.1370067255838819    
     2.215770156789791        0.1353419204533084    
     2.222849294670909        0.1336954667319959    
     2.229928432552026        0.1320671495877846    
     2.237007570433144        0.1304567564768631    
     2.244086708314262        0.1288640771239368    
     2.251165846195379        0.1272889035023742    
     2.258244984076497        0.1257310298143474    
     2.265324121957614        0.1241902524709700    
     2.272403259838732        0.1226663700724365    
     2.279482397719849        0.1211591833881762    
     2.286561535600967        0.1196684953370294    
     2.293640673482084        0.1181941109674476    
     2.300719811363202        0.1167358374377248    
     2.307798949244320        0.1152934839962687    
     2.314878087125437        0.1138668619619192    
     2.321957225006555        0.1124557847043119    
     2.329036362887672        0.1110600676242978    
     2.336115500768789        0.1096795281344233    
     2.343194638649907        0.1083139856394761    
     2.350273776531025        0.1069632615171005    
     2.357352914412142        0.1056271790984796    
     2.364432052293260        0.1043055636491008    
     2.371511190174378        0.1029982423496033    
     2.378590328055495        0.1017050442767069    
     2.385669465936612        0.1004258003842249    
     2.392748603817730        0.9916034348417593E-01
     2.399827741698847        0.9790850822798713E-01
     2.406906879579965        0.9667013108779512E-01
     2.413986017461083        0.9544505033784044E-01
     2.421065155342200        0.9423310603597171E-01
     2.428144293223318        0.9303414000525419E-01
     2.435223431104435        0.9184799581568331E-01
     2.442302568985553        0.9067451876600277E-01
     2.449381706866670        0.8951355586563935E-01
     2.456460844747788        0.8836495581675177E-01
     2.463539982628905        0.8722856899639239E-01
     2.470619120510023        0.8610424743878016E-01
     2.477698258391141        0.8499184481769491E-01
     2.484777396272258        0.8389121642899566E-01
     2.491856534153376        0.8280221917325374E-01
     2.498935672034493        0.8172471153850858E-01
     2.506014809915611        0.8065855358313886E-01
     2.513093947796728        0.7960360691887312E-01
     2.520173085677846        0.7855973469391471E-01
     2.527252223558963        0.7752680157619449E-01
     2.534331361440081        0.7650467373673830E-01
     2.541410499321199        0.7549321883318372E-01
     2.548489637202316        0.7449230599340662E-01
     2.555568775083433        0.7350180579928556E-01
     2.562647912964551        0.7252159027057831E-01
     2.569727050845668        0.7155153284894630E-01
     2.576806188726786        0.7059150838209929E-01
     2.583885326607904        0.6964139310807188E-01
     2.590964464489021        0.6870106463962171E-01
     2.598043602370139        0.6777040194876116E-01
     2.605122740251256        0.6684928535142723E-01
     2.612201878132374        0.6593759649227182E-01
     2.619281016013491        0.6503521832958668E-01
     2.626360153894609        0.6414203512034174E-01
     2.633439291775726        0.6325793240538001E-01
     2.640518429656844        0.6238279699472363E-01
     2.647597567537962        0.6151651695301666E-01
     2.654676705419079        0.6065898158508297E-01
     2.661755843300197        0.5981008142162877E-01
     2.668834981181314        0.5896970820506986E-01
     2.675914119062432        0.5813775487548409E-01
     2.682993256943549        0.5731411555669284E-01
     2.690072394824667        0.5649868554245714E-01
     2.697151532705784        0.5569136128282590E-01
     2.704230670586902        0.5489204037059162E-01
     2.711309808468020        0.5410062152788154E-01
     2.718388946349137        0.5331700459285816E-01
     2.725468084230255        0.5254109050656115E-01
     2.732547222111372        0.5177278129987168E-01
     2.739626359992490        0.5101198008059429E-01
     2.746705497873607        0.5025859102066723E-01
     2.753784635754725        0.4951251934347867E-01
     2.760863773635843        0.4877367131133142E-01
     2.767942911516960        0.4804195421301160E-01
     2.775022049398078        0.4731727635148428E-01
     2.782101187279195        0.4659954703169975E-01
     2.789180325160312        0.4588867654852281E-01
     2.796259463041430        0.4518457617478984E-01
     2.803338600922548        0.4448715814947321E-01
     2.810417738803665        0.4379633566596998E-01
     2.817496876684783        0.4311202286048748E-01
     2.824576014565900        0.4243413480056846E-01
     2.831655152447018        0.4176258747372110E-01
     2.838734290328135        0.4109729777616009E-01
     2.845813428209253        0.4043818350166813E-01
     2.852892566090370        0.3978516333054691E-01
     2.859971703971488        0.3913815681871204E-01
     2.867050841852606        0.3849708438687854E-01
     2.874129979733723        0.3786186730986033E-01
     2.881209117614841        0.3723242770598061E-01
     2.888288255495958        0.3660868852657306E-01
     2.895367393377076        0.3599057354562010E-01
     2.902446531258193        0.3537800734947701E-01
     2.909525669139311        0.3477091532670664E-01
     2.916604807020428        0.3416922365801774E-01
     2.923683944901546        0.3357285930629740E-01
     2.930763082782664        0.3298175000676801E-01
     2.937842220663781        0.3239582425722971E-01
     2.944921358544899        0.3181501130840884E-01
     2.952000496426016        0.3123924115440339E-01
     2.959079634307133        0.3066844452322286E-01
     2.966158772188251        0.3010255286744298E-01
     2.973237910069369        0.2954149835494515E-01
     2.980317047950486        0.2898521385975525E-01
     2.987396185831604        0.2843363295297633E-01
     2.994475323712722        0.2788668989381145E-01
     3.001554461593839        0.2734431962069612E-01
     3.008633599474956        0.2680645774251034E-01
     3.015712737356074        0.2627304052988784E-01
     3.022791875237191        0.2574400490661364E-01
     3.029871013118309        0.2521928844110589E-01
     3.036950150999427        0.2469882933800508E-01
     3.044029288880544        0.2418256642983789E-01
     3.051108426761662        0.2367043916877199E-01
     3.058187564642779        0.2316238761845896E-01
     3.065266702523897        0.2265835244595252E-01
     3.072345840405014        0.2215827491373175E-01
     3.079424978286132        0.2166209687179478E-01
     3.086504116167249        0.2116976074983846E-01
     3.093583254048367        0.2068120954952425E-01
     3.100662391929485        0.2019638683681039E-01
     3.107741529810602        0.1971523673438868E-01
     3.114820667691720        0.1923770391418558E-01
     3.121899805572837        0.1876373358994624E-01
     3.128978943453955        0.1829327150989938E-01
     3.136058081335072        0.1782626394948629E-01
     3.143137219216190        0.1736265770418581E-01
     3.150216357097307        0.1690240008240389E-01
     3.157295494978425        0.1644543889844009E-01
     3.164374632859543        0.1599172246552943E-01
     3.171453770740660        0.1554119958895169E-01
     3.178532908621778        0.1509381955921733E-01
     3.185612046502895        0.1464953214532994E-01
     3.192691184384012        0.1420828758811169E-01
     3.199770322265130        0.1377003659360346E-01
     3.206849460146248        0.1333473032830644E-01
     3.213928598027365        0.1290232051412185E-01
     3.221007735908483        0.1247276065854921E-01
     3.228086873789600        0.1204601149851752E-01
     3.235166011670718        0.1162205294997091E-01
     3.242245149551835        0.1120090031304750E-01
     3.249324287432953        0.1078261978527002E-01
     3.256403425314070        0.1036733938830242E-01
     3.263482563195188        0.9955253830554839E-02
     3.270561701076306        0.9546623689370249E-02
     3.277640838957423        0.9141770187903195E-02
     3.284719976838541        0.8741067031310926E-02
     3.291799114719658        0.8344930599642423E-02
     3.298878252600776        0.7953809504582571E-02
     3.305957390481893        0.7568174224809767E-02
     3.313036528363011        0.7188507288915420E-02
     3.320115666244128        0.6815294286742260E-02
     3.327194804125246        0.6449015854661816E-02
     3.334273942006364        0.6090140687483920E-02
     3.341353079887481        0.5739119568794071E-02
     3.348432217768599        0.5396380373612134E-02
     3.355511355649716        0.5062323975350550E-02
     3.362590493530834        0.4737320977918046E-02
     3.369669631411951        0.4421709189773400E-02
     3.376748769293069        0.4115791757173195E-02
     3.383827907174186        0.3819835876950261E-02
     3.390907045055304        0.3534072013725762E-02
     3.397986182936422        0.3258693551629879E-02
     3.405065320817539        0.2993856815809471E-02
     3.412144458698656        0.2739681403831868E-02
     3.419223596579774        0.2496250771186798E-02
     3.426302734460891        0.2263613018096623E-02
     3.433381872342009        0.2041781826338614E-02
     3.440461010223127        0.1830737494082547E-02
     3.447540148104244        0.1630428012767120E-02
     3.454619285985362        0.1440770120893162E-02
     3.461698423866479        0.1261650251821347E-02
     3.468777561747597        0.1092925259678207E-02
     3.475856699628714        0.9344227462019073E-03
     3.482935837509832        0.7859406941992275E-03
     3.490014975390949        0.6472458779155284E-03
     3.497094113272067        0.5180700138974222E-03
     3.504173251153185        0.3981014191389639E-03
     3.511252389034302        0.2869667390240114E-03
     3.518331526915420        0.1841870515259546E-03
     3.525410664796537        0.8904914316697188E-04
     3.532489802677655         0.000000000000000    
  1  2  1  0  4.000000   #orbital l, n, z, is_polarized, population
 500    0.8616300915490618E-02     4.299534156829818     # npts, delta, cutoff
     0.000000000000000         4.651186444878020    
    0.8616300915490618E-02     4.650470714579108    
    0.1723260183098124E-01     4.648324248725831    
    0.2584890274647185E-01     4.644749231624735    
    0.3446520366196247E-01     4.639749298249830    
    0.4308150457745309E-01     4.633329529550999    
    0.5169780549294371E-01     4.625496444455134    
    0.6031410640843432E-01     4.616257989602791    
    0.6893040732392494E-01     4.605623526836425    
    0.7754670823941556E-01     4.593603818459503    
    0.8616300915490618E-01     4.580211010289658    
    0.9477931007039679E-01     4.565458612532405    
    0.1033956109858874         4.549361478505973    
    0.1120119119013780         4.531935781251186    
    0.1206282128168686         4.513198988064264    
    0.1292445137323593         4.493169832994057    
    0.1378608146478499         4.471868287349237    
    0.1464771155633405         4.449315528264393    
    0.1550934164788311         4.425533905378209    
    0.1637097173943217         4.400546905680611    
    0.1723260183098124         4.374379116589317    
    0.1809423192253030         4.347056187320709    