Executable      : siesta
Version         : 5.2.1
Architecture    : x86_64
Compiler version: GNU-13.3.0
Compiler flags  : -march=nocona -mtune=haswell -ftree-vectorize -fPIC -fstack-protector-strong -fno-plt -O2 -ffunction-sections -pipe -isystem <prefix>/include -I<prefix>/_build_env/include -fdebug-prefix-map=<prefix>/work=/usr/local/src/conda/siesta-5.2.1 -fdebug-prefix-map=<prefix>=/usr/local/src/conda-prefix -I<prefix>/lib -fallow-argument-mismatch -O3
Parallelisations: none
NetCDF support
NetCDF-4 support
Lua support
DFT-D3 support

Runtime information:
* Directory : /home/samba/homes/convidat/PROJECTE_SSN/input
* Running in serial mode.
>> Start of run:   1-JUL-2025  23:15:36

                           *********************** 
                           *  WELCOME TO SIESTA  * 
                           *********************** 

 NOTE: Siesta V5 introduces some new defaults for basis-set generation
 NOTE: which might lead to slightly different numerical results.
 NOTE: Please see the manual for full details and compatibility measures.


reinit: Reading from file xoc_IrO2_H2O_simulacio1.fdf

reinit: -----------------------------------------------------------------------
reinit: System Name: IrO2 + H2O collition
reinit: -----------------------------------------------------------------------
reinit: System Label: simulacio1
reinit: -----------------------------------------------------------------------

initatom: Reading input for the pseudopotentials and atomic orbitals ----------
Species number:   1 Atomic number:    8 Label: O
Species number:   2 Atomic number:    1 Label: H
Species number:   3 Atomic number:   77 Label: Ir

Ground state valence configuration (from tables):   2s02  2p04  3d00  4f00
Ground state valence configuration (from tables):   1s01  2p00  3d00  4f00
Ground state valence configuration (from tables):   6s02  6p00  5d07  5f00

---- Processing specs for species: O
Reading pseudopotential information in PSML from:
  O.psml
PSML file version: 1.1
Using libxc ids:  101 130
GGA--PBE XC_GGA_X_PBE--XC_GGA_C_PBE pb
PSML uuid: 3cff85a0-be41-11e7-6c5c-1b1fe64d18ef

---- Processing specs for species: H
Reading pseudopotential information in PSML from:
  H.psml
PSML file version: 1.1
Using libxc ids:  101 130
GGA--PBE XC_GGA_X_PBE--XC_GGA_C_PBE pb
PSML uuid: f95fa9b0-be40-11e7-634a-9594ffff953f

---- Processing specs for species: Ir
Reading pseudopotential information in PSML from:
  Ir.psml
PSML file version: 1.1
Using libxc ids:  101 130
GGA--PBE XC_GGA_X_PBE--XC_GGA_C_PBE pb
PSML uuid: e3f95a80-be45-11e7-61df-5ba3fadd20b7
Semicore shell(s) with  8 electrons included in the valence for Ir

---- Pseudopotential check for O 

Pseudized shells:
2s( 2.00) rc: 1.36
2p( 4.00) rc: 1.46
3d( 0.00) rc: 1.26
Valence configuration for ps generation: 2s:2p: Total charge:   6.000000

---- Pseudopotential check for H 

Pseudized shells:
1s( 1.00) rc: 1.01
2p( 0.00) rc: 0.71
Valence configuration for ps generation: 1s: Total charge:   1.000000

---- Pseudopotential check for Ir

Pseudized shells:
5s( 2.00) rc: 1.60
5p( 6.00) rc: 1.60
5d( 7.00) rc: 1.51
5f( 0.00) rc: 2.27
Valence configuration for ps generation: 5s:5p:5d:6s: Total charge:  17.000000
Semicore shell(s): 5s 5p
Fallback to non-perturbative polarization scheme for Ir
Please see the manual if this is not desired in principle
For O, standard SIESTA heuristics set lmxkb to 3
 (one more than the basis l, including polarization orbitals).
Use PS.lmax or PS.KBprojectors blocks to override.
For H, standard SIESTA heuristics set lmxkb to 2
 (one more than the basis l, including polarization orbitals).
Use PS.lmax or PS.KBprojectors blocks to override.
For Ir, standard SIESTA heuristics set lmxkb to 3
 (one more than the basis l, including polarization orbitals).
Use PS.lmax or PS.KBprojectors blocks to override.
O pseudopotential only contains V_ls up to l=2 -- lmxkb reset.
H pseudopotential only contains V_ls up to l=1 -- lmxkb reset.

<basis_specs>
===============================================================================
O                    Z=   8    Mass=  15.999        Charge= 0.17977+309
Lmxo=2 Lmxkb= 2    BasisType=split      Semic=F
L=0  Nsemic=0  Cnfigmx=2
          i=1  nzeta=1  polorb=0  (2s)
            splnorm:   0.15000    
               vcte:    40.000    
               rinn:  -0.90000    
               qcoe:    0.0000    
               qyuk:    0.0000    
               qwid:   0.10000E-01
                rcs:    0.0000    
            lambdas:    1.0000    
L=1  Nsemic=0  Cnfigmx=2
          i=1  nzeta=1  polorb=1  (2p)  (to be polarized perturbatively)
            splnorm:   0.15000    
               vcte:    40.000    
               rinn:  -0.90000    
               qcoe:    0.0000    
               qyuk:    0.0000    
               qwid:   0.10000E-01
                rcs:    0.0000    
            lambdas:    1.0000    
L=2  Nsemic=0  Cnfigmx=3
          i=1  nzeta=0  polorb=0  (3d)  (perturbative polarization orbital) (from 2p)
-------------------------------------------------------------------------------
L=0  Nkbl=1  erefs: 0.17977+309
L=1  Nkbl=1  erefs: 0.17977+309
L=2  Nkbl=1  erefs: 0.17977+309
===============================================================================
</basis_specs>

Using PAO.SplitTailNorm
atom: Called for O                     (Z =   8)
Maximum radius (at nrval) set to   50.00000 8518

read_vps: Pseudopotential generation method:
read_vps: ONCVPSP-3.Hamann's oncvpsp                        
Valence charge in pseudo generation:    6.00000

read_vps: Pseudopotential includes a core correction:
read_vps: Pseudo-core for xc-correction

xc_check: Exchange-correlation functional:
xc_check: GGA Perdew, Burke & Ernzerhof 1996
Got Vlocal (oncv-fit) from psml data
Choosing vlocal chloc cutoff:  6.020499
qtot up to nchloc:    6.00001015
atom: Maximum radius for chlocal:    6.02050
atom: Maximum radius for r*vlocal+2*Zval:    6.02050
Reading KB projs from O psml data
Using scalar-relativistic projectors in PSML file

PSML: Kleinman-Bylander projectors: 
   l= 0   rc=  1.372412   Ekb= 12.113471
   l= 0   rc=  1.372412   Ekb=  1.648048
   l= 1   rc=  1.474132   Ekb= -9.434259
   l= 1   rc=  1.474132   Ekb= -2.298541
   l= 2   rc=  1.277664   Ekb= -2.663910

PSML: Total number of  Kleinman-Bylander projectors:  13
atom: -------------------------------------------------------------------------

atom: SANKEY-TYPE ORBITALS:

SPLIT: Orbitals with angular momentum L= 0

SPLIT: Basis orbitals for state 2s

SPLIT: PAO cut-off radius determined from an
SPLIT: energy shift=  0.010000 Ry
Split based on tail norm

   izeta = 1
                 lambda =    1.000000
                     rc =    3.532490
                 energy =   -1.750073
                kinetic =    1.592274
    potential(screened) =   -3.342346
       potential(ionic) =  -11.245343

SPLIT: Orbitals with angular momentum L= 1

SPLIT: Basis orbitals for state 2p

SPLIT: PAO cut-off radius determined from an
SPLIT: energy shift=  0.010000 Ry
Split based on tail norm

   izeta = 1
                 lambda =    1.000000
                     rc =    4.299534
                 energy =   -0.652700
                kinetic =    4.625238
    potential(screened) =   -5.277939
       potential(ionic) =  -12.923043

POLgen: Perturbative polarization orbital with L=  2

POLgen: Polarization orbital for state 2p
Split based on tail norm

   izeta = 1
                     rc =    4.299534
                 energy =    2.238408
                kinetic =    4.166258
    potential(screened) =   -1.927850
       potential(ionic) =   -8.042214
atom: Total number of Sankey-type orbitals:  9

atm_pop: Valence configuration (for local Pseudopot. screening):
 2s( 2.00)                                                            
 2p( 4.00)                                                            
 3d( 0.00)                                                            
Vna: chval, zval:    6.00000   6.00000

Vna:  Cut-off radius for the neutral-atom potential:   4.299534
comcore: Pseudo-core radius Rcore=  1.354557

atom: _________________________________________________________________________

<basis_specs>
===============================================================================
H                    Z=   1    Mass=  1.0080        Charge= 0.17977+309
Lmxo=1 Lmxkb= 1    BasisType=split      Semic=F
L=0  Nsemic=0  Cnfigmx=1
          i=1  nzeta=1  polorb=1  (1s)  (to be polarized perturbatively)
            splnorm:   0.15000    
               vcte:    40.000    
               rinn:  -0.90000    
               qcoe:    0.0000    
               qyuk:    0.0000    
               qwid:   0.10000E-01
                rcs:    0.0000    
            lambdas:    1.0000    
L=1  Nsemic=0  Cnfigmx=2
          i=1  nzeta=0  polorb=0  (2p)  (perturbative polarization orbital) (from 1s)
-------------------------------------------------------------------------------
L=0  Nkbl=1  erefs: 0.17977+309
L=1  Nkbl=1  erefs: 0.17977+309
===============================================================================
</basis_specs>

Using PAO.SplitTailNorm
atom: Called for H                     (Z =   1)
Maximum radius (at nrval) set to   50.00000 8518

read_vps: Pseudopotential generation method:
read_vps: ONCVPSP-3.Hamann's oncvpsp                        
Valence charge in pseudo generation:    1.00000

xc_check: Exchange-correlation functional:
xc_check: GGA Perdew, Burke & Ernzerhof 1996
Got Vlocal (oncv-fit) from psml data
Choosing vlocal chloc cutoff:  1.926399
qtot up to nchloc:    0.99999831
atom: Maximum radius for chlocal:    1.92640
atom: Maximum radius for r*vlocal+2*Zval:    1.92640
Reading KB projs from H psml data
Using scalar-relativistic projectors in PSML file

PSML: Kleinman-Bylander projectors: 
   l= 0   rc=  1.022342   Ekb= -3.402247
   l= 0   rc=  1.022342   Ekb= -1.068968
   l= 1   rc=  0.714575   Ekb= -1.006642

PSML: Total number of  Kleinman-Bylander projectors:   5
atom: -------------------------------------------------------------------------

atom: SANKEY-TYPE ORBITALS:

SPLIT: Orbitals with angular momentum L= 0

SPLIT: Basis orbitals for state 1s

SPLIT: PAO cut-off radius determined from an
SPLIT: energy shift=  0.010000 Ry
Split based on tail norm

   izeta = 1
                 lambda =    1.000000
                     rc =    5.232664
                 energy =   -0.466081
                kinetic =    0.956761
    potential(screened) =   -1.422842
       potential(ionic) =   -1.948825

POLgen: Perturbative polarization orbital with L=  1

POLgen: Polarization orbital for state 1s
Split based on tail norm

   izeta = 1
                     rc =    5.232664
                 energy =    0.682216
                kinetic =    1.337348
    potential(screened) =   -0.655132
       potential(ionic) =   -1.143559
atom: Total number of Sankey-type orbitals:  4

atm_pop: Valence configuration (for local Pseudopot. screening):
 1s( 1.00)                                                            
 2p( 0.00)                                                            
Vna: chval, zval:    1.00000   1.00000

Vna:  Cut-off radius for the neutral-atom potential:   5.232664

atom: _________________________________________________________________________

<basis_specs>
===============================================================================
Ir                   Z=  77    Mass=  192.22        Charge= 0.17977+309
Lmxo=2 Lmxkb= 3    BasisType=split      Semic=T
L=0  Nsemic=1  Cnfigmx=6
          i=1  nzeta=1  polorb=0  (5s)  (semicore shell)
            splnorm:   0.15000    
               vcte:    40.000    
               rinn:  -0.90000    
               qcoe:    0.0000    
               qyuk:    0.0000    
               qwid:   0.10000E-01
                rcs:    0.0000    
            lambdas:    1.0000    
          i=2  nzeta=1  polorb=0  (6s)  (to be polarized non-perturbatively)
            splnorm:   0.15000    
               vcte:    40.000    
               rinn:  -0.90000    
               qcoe:    0.0000    
               qyuk:    0.0000    
               qwid:   0.10000E-01
                rcs:    0.0000    
            lambdas:    1.0000    
L=1  Nsemic=1  Cnfigmx=6
          i=1  nzeta=1  polorb=0  (5p)  (semicore shell)
            splnorm:   0.15000    
               vcte:    40.000    
               rinn:  -0.90000    
               qcoe:    0.0000    
               qyuk:    0.0000    
               qwid:   0.10000E-01
                rcs:    0.0000    
            lambdas:    1.0000    
          i=2  nzeta=1  polorb=0  (6p)  (non-perturbative polarization shell)
            splnorm:   0.15000    
               vcte:    40.000    
               rinn:  -0.90000    
               qcoe:   0.19310-311
               qyuk:   0.19763-322
               qwid:   0.21220-312
                rcs:    0.0000    
            lambdas:    1.0000    
L=2  Nsemic=0  Cnfigmx=5
          i=1  nzeta=1  polorb=0  (5d)
            splnorm:   0.15000    
               vcte:    40.000    
               rinn:  -0.90000    
               qcoe:    0.0000    
               qyuk:    0.0000    
               qwid:   0.10000E-01
                rcs:    0.0000    
            lambdas:    1.0000    
-------------------------------------------------------------------------------
L=0  Nkbl=2  erefs: 0.17977+309 0.17977+309
L=1  Nkbl=2  erefs: 0.17977+309 0.17977+309
L=2  Nkbl=1  erefs: 0.17977+309
L=3  Nkbl=1  erefs: 0.17977+309
===============================================================================
</basis_specs>

Using PAO.SplitTailNorm
atom: Called for Ir                    (Z =  77)
Maximum radius (at nrval) set to   50.00000 8518

read_vps: Pseudopotential generation method:
read_vps: ONCVPSP-3.Hamann's oncvpsp                        
Valence charge in pseudo generation:   17.00000

read_vps: Pseudopotential includes a core correction:
read_vps: Pseudo-core for xc-correction

xc_check: Exchange-correlation functional:
xc_check: GGA Perdew, Burke & Ernzerhof 1996
Got Vlocal (oncv-fit) from psml data
Choosing vlocal chloc cutoff:  5.047285
qtot up to nchloc:   16.99999563
atom: Maximum radius for chlocal:    5.04729
atom: Maximum radius for r*vlocal+2*Zval:    5.04729
Reading KB projs from Ir psml data
Using scalar-relativistic projectors in PSML file

PSML: Kleinman-Bylander projectors: 
   l= 0   rc=  1.623671   Ekb=179.823246
   l= 0   rc=  1.625306   Ekb=  5.611620
   l= 1   rc=  1.623671   Ekb= 14.834396
   l= 1   rc=  1.625306   Ekb=  2.223076
   l= 2   rc=  1.530073   Ekb=  4.077077
   l= 2   rc=  1.530073   Ekb=  0.309986
   l= 3   rc=  2.296727   Ekb=  2.269623
   l= 3   rc=  2.296727   Ekb=  0.752356

PSML: Total number of  Kleinman-Bylander projectors:  32
atom: -------------------------------------------------------------------------

atom: SANKEY-TYPE ORBITALS:

SPLIT: Orbitals with angular momentum L= 0

SPLIT: Basis orbitals for state 5s

SPLIT: PAO cut-off radius determined from an
SPLIT: energy shift=  0.010000 Ry
Split based on tail norm

   izeta = 1
                 lambda =    1.000000
                     rc =    2.552107
                 energy =   -7.190699
                kinetic =    2.528468
    potential(screened) =   -9.719167
       potential(ionic) =  -31.933069

SPLIT: Basis orbitals for state 6s

SPLIT: PAO cut-off radius determined from an
SPLIT: energy shift=  0.010000 Ry
Split based on tail norm

   izeta = 1
                 lambda =    1.000000
                     rc =    5.972448
                 energy =   -0.613744
                kinetic =    1.708538
    potential(screened) =   -2.322283
       potential(ionic) =  -16.338063

SPLIT: Orbitals with angular momentum L= 1

SPLIT: Basis orbitals for state 5p

SPLIT: PAO cut-off radius determined from an
SPLIT: energy shift=  0.010000 Ry
Split based on tail norm

   izeta = 1
                 lambda =    1.000000
                     rc =    3.008711
                 energy =   -4.009156
                kinetic =    4.503050
    potential(screened) =   -8.512206
       potential(ionic) =  -29.662854

SPLIT: Basis orbitals for state 6p
SPLIT: Non-perturbative polarization orbs for state 6s
SPLIT: rc(1st zeta) (re)set to: 5.9724 (expansion factor: 1.0000)
Split based on tail norm

   izeta = 1
                 lambda =    1.000000
                     rc =    5.972448
                 energy =    0.024958
                kinetic =    1.334408
    potential(screened) =   -1.309450
       potential(ionic) =  -12.451899

SPLIT: Orbitals with angular momentum L= 2

SPLIT: Basis orbitals for state 5d

SPLIT: PAO cut-off radius determined from an
SPLIT: energy shift=  0.010000 Ry
Split based on tail norm

   izeta = 1
                 lambda =    1.000000
                     rc =    4.829589
                 energy =   -0.514090
                kinetic =    4.494124
    potential(screened) =   -5.008214
       potential(ionic) =  -22.788410
atom: Total number of Sankey-type orbitals: 13

atm_pop: Valence configuration (for local Pseudopot. screening):
 5s( 2.00) 6s( 2.00)                                                  
 5p( 6.00) 6p( 0.00)                                                  
 5d( 7.00)                                                            
Vna: chval, zval:   17.00000  17.00000

Vna:  Cut-off radius for the neutral-atom potential:   5.972448
comcore: Pseudo-core radius Rcore=  2.765497

atom: _________________________________________________________________________

prinput: Basis input 

PAO.BasisType split     

%block ChemicalSpeciesLabel
    1    8 O                       # Species index, atomic number, species label
    2    1 H                       # Species index, atomic number, species label
    3   77 Ir                      # Species index, atomic number, species label
%endblock ChemicalSpeciesLabel

%block PAO.Basis                 # Define Basis set
# WARNING: This information might be incomplete!
O                     2                    # Species label, number of l-shells
 n=2   0   1                         # n, l, Nzeta 
   3.532   
   1.000   
 n=2   1   1 P   1                   # n, l, Nzeta, Polarization, NzetaPol
   4.300   
   1.000   
H                     1                    # Species label, number of l-shells
 n=1   0   1 P   1                   # n, l, Nzeta, Polarization, NzetaPol
   5.233   
   1.000   
Ir                    5                    # Species label, number of l-shells
 n=5   0   1                         # n, l, Nzeta 
   2.552   
   1.000   
 n=6   0   1                         # n, l, Nzeta 
   5.972   
   1.000   
 n=5   1   1                         # n, l, Nzeta 
   3.009   
   1.000   
 n=6   1   1                         # n, l, Nzeta 
   5.972   
   1.000   
 n=5   2   1                         # n, l, Nzeta 
   4.830   
   1.000   
%endblock PAO.Basis

prinput: ----------------------------------------------------------------------

Dumping basis to NetCDF file O.ion.nc
Dumping basis to NetCDF file H.ion.nc
Dumping basis to NetCDF file Ir.ion.nc
coor:   Atomic-coordinates input format  =     Cartesian coordinates
coor:                                          (in Angstroms)

siesta: WARNING: XV file not found

siesta: Atomic coordinates (Bohr) and species
siesta:      0.00027  -0.00060  18.45014  3        1
siesta:      4.25705   4.25644  19.34927  3        2
siesta:      1.98228   6.53111  20.55718  1        3
siesta:      6.53128   1.98254  20.55612  1        4
siesta:      6.23933   6.23919  17.24262  1        5
siesta:      2.27427   2.27385  17.24269  1        6
siesta:      4.25172   4.24805  29.83640  1        7
siesta:      5.69299   5.38863  29.84430  2        8
siesta:      2.81218   5.38802  29.84350  2        9

siesta: System type = molecule  

initatomlists: Number of atoms, orbitals, and projectors:      9    79   139

coxmol: Writing XMOL coordinates into file simulacio1.xyz                                                                                                                                                                                                                      

siesta: ******************** Simulation parameters ****************************
siesta:
siesta: The following are some of the parameters of the simulation.
siesta: A complete list of the parameters used, including default values,
siesta: can be found in file out.fdf
siesta:
redata: Spin configuration                          = none
redata: Number of spin components                   = 1
redata: Time-Reversal Symmetry                      = T
redata: Spin spiral                                 = F
redata: Long output                                 =   F
redata: Number of Atomic Species                    =        3
redata: Charge density info will appear in .RHO file
redata: Write Mulliken charges (when)               = none
redata: Write Mulliken Pop.                         = NO
redata: Write Hirshfeld charges (when)              = none
redata: Write Voronoi charges (when)                = none
redata: Write spin charge (when)                    = none
redata: Matel table size (NRTAB)                    =     1024
redata: Mesh Cutoff                                 =   200.0000 Ry
redata: Net charge of the system                    =     0.0000 |e|
redata: Min. number of SCF Iter                     =        0
redata: Max. number of SCF Iter                     =      250
redata: SCF convergence failure will abort job
redata: SCF mix quantity                            = Hamiltonian
redata: Mix DM or H after convergence               =   F
redata: Recompute H after scf cycle                 =   F
redata: Mix DM in first SCF step                    =   T
redata: Write Pulay info on disk                    =   F
redata: New DM Occupancy tolerance                  = 0.000000000001
redata: No kicks to SCF
redata: DM Mixing Weight for Kicks                  =     0.5000
redata: Require Harris convergence for SCF          =   F
redata: Harris energy tolerance for SCF             =     0.000100 eV
redata: Require DM convergence for SCF              =   T
redata: DM tolerance for SCF                        =     0.000300
redata: Require EDM convergence for SCF             =   F
redata: EDM tolerance for SCF                       =     0.001000 eV
redata: Require H convergence for SCF               =   T
redata: Hamiltonian tolerance for SCF               =     0.001000 eV
redata: Require (free) Energy convergence for SCF   =   F
redata: (free) Energy tolerance for SCF             =     0.000100 eV
redata: Using DFT-D3 dispersion                     =   F
redata: Using Saved Data (generic)                  =   F
redata: Use continuation files for DM               =   T
redata: Neglect nonoverlap interactions             =   F
redata: Method of Calculation                       = Diagonalization
redata: Electronic Temperature                      =   290.1130 K
redata: Fix the spin of the system                  =   F
redata: Max. number of TDED Iter                    =        1
redata: Number of TDED substeps                     =        3
redata: Dynamics option                             = Nose thermostat MD run
redata: Initial MD time step                        =        1
redata:   Final MD time step                        =       25
redata: Length of MD time step                      =     1.0000 fs
redata: Initial Temperature of MD run               =   700.0000 K
redata: Perform a MD quench                         =   F
redata: Nose mass                                   =  1360.5693 eV*fs**2
redata: Target Temperature                          =   700.0000 Kelvin
mix.SCF: Pulay mixing                            = Pulay
mix.SCF:    Variant                              = stable
mix.SCF:    History steps                        = 6
mix.SCF:    Linear mixing weight                 =     0.020000
mix.SCF:    Mixing weight                        =     0.020000
mix.SCF:    SVD condition                        = 0.1000E-07
redata: Save all siesta data in one NC              =   F
redata: ***********************************************************************

%block SCF.Mixers
  Pulay
%endblock SCF.Mixers

%block SCF.Mixer.Pulay
  # Mixing method
  method pulay
  variant stable

  # Mixing options
  weight 0.0200
  weight.linear 0.0200
  history 6
%endblock SCF.Mixer.Pulay

Size of DM history Fstack: 1
Total number of electrons:    66.000000
Total ionic charge:    66.000000
 Kpoints in:            1 . Kpoints trimmed:            1

siesta: k-grid: Number of k-points = 1
siesta: k-points from Monkhorst-Pack grid
siesta: k-cutoff (effective) =    10.000 Ang
siesta: k-point supercell and displacements
siesta: k-grid:     1     0     0      0.000
siesta: k-grid:     0     1     0      0.000
siesta: k-grid:     0     0     1      0.000

diag: Algorithm                                     = D&C
diag: Used triangular part                          = Lower
diag: Absolute tolerance                            =  0.100E-15
diag: Orthogonalization factor                      =  0.100E-05
diag: Memory factor                                 =  1.0000


ts: **************************************************************
ts: Save H and S matrices                           =    F
ts: Save DM and EDM matrices                        =    F
ts: Only save the overlap matrix S                  =    F
ts: **************************************************************

************************ Begin: TS CHECKS AND WARNINGS ************************
************************ End: TS CHECKS AND WARNINGS **************************


                     ====================================
                        Begin MD step =      1
                     ====================================

outcell: Unit cell vectors (Ang):
       20.000000    0.000000    0.000000
        0.000000   20.000000    0.000000
        0.000000    0.000000   20.000000

outcell: Cell vector modules (Ang)   :   20.000000   20.000000   20.000000
outcell: Cell angles (23,13,12) (deg):     90.0000     90.0000     90.0000
outcell: Cell volume (Ang**3)        :   8000.0000
<dSpData1D:S at geom step 1
  <sparsity:sparsity for geom step 1
    nrows_g=79 nrows=79 sparsity=.6789 nnzs=4237, refcount: 7>
  <dData1D:(new from dSpData1D) n=4237, refcount: 1>
refcount: 1>
new_DM -- step:     1
Initializing Density Matrix...

Attempting to read DM from file... Failed...
DM filled with atomic data:
<dSpData2D:DM initialized from atoms
  <sparsity:sparsity for geom step 1
    nrows_g=79 nrows=79 sparsity=.6789 nnzs=4237, refcount: 8>
  <dData2D:DM n=4237 m=1, refcount: 1>
refcount: 1>
No. of atoms with KB's overlaping orbs in proc 0. Max # of overlaps:       9      59

InitMesh: MESH = 180 x 180 x 180 = 5832000
InitMesh: Mesh cutoff (required, used) =   200.000   223.865 Ry
New grid distribution [1]: sub = 2

stepf: Fermi-Dirac step function

siesta: Program's energy decomposition (eV):
siesta: Ebs     =     -1742.642959
siesta: Eions   =     11676.786863
siesta: Ena     =      1574.677460
siesta: Ekin    =      3388.516978
siesta: Enl     =      -140.387753
siesta: Eso     =         0.000000
siesta: Edftu   =         0.000000
siesta: DEna    =        86.482445
siesta: DUscf   =        99.987691
siesta: DUext   =         0.000000
siesta: Ex      =     -1676.779736
siesta: Ec      =      -106.523970
siesta: Exc     =     -1783.303706
siesta: EbV     =         0.000000
siesta: eta*DQ  =         0.000000
siesta: Emadel  =         0.000000
siesta: Emeta   =         0.000000
siesta: Emolmec =         0.000000
siesta: Ekinion =         0.000000
siesta: Eharris =     -8336.744266
siesta: Etot    =     -8450.813748
siesta: FreeEng =     -8450.813748

        iscf     Eharris(eV)        E_KS(eV)     FreeEng(eV)     dDmax    Ef(eV) dHmax(eV)
   scf:    1    -8336.744266    -8450.813748    -8450.813748  1.975149 -0.833142 47.389229
timer: Routine,Calls,Time,% = IterSCF        1       1.611  19.87
   scf:    2    -8485.832368    -8470.448498    -8470.448498  0.279539 -1.170160 36.962808
   scf:    3    -8495.654236    -8486.777933    -8486.777936  0.455220 -1.669983 22.049349
   scf:    4    -8261.051891    -8452.546608    -8452.546608  1.328515 -2.463354 34.635174
   scf:    5    -8471.338375    -8462.196896    -8462.196896  0.063314 -2.654328 31.902721
   scf:    6    -8513.910944    -8519.600733    -8519.600733  1.013836 -3.090114  6.390333
   scf:    7    -8510.902283    -8517.806516    -8517.806516  0.252411 -3.028351  6.974065
   scf:    8    -8503.430594    -8516.458437    -8516.458437  0.424026 -3.054189 10.432796
   scf:    9    -8519.026173    -8520.580024    -8520.580024  0.306853 -2.956054  6.155131
   scf:   10    -8503.252610    -8515.343241    -8515.343241  0.309719 -3.023967 11.343714
   scf:   11    -8518.578103    -8517.073488    -8517.073488  0.065357 -3.016853  9.071269
   scf:   12    -8515.813527    -8516.822259    -8516.822259  0.101645 -3.028814 11.087380
   scf:   13    -8518.850367    -8517.867670    -8517.867670  0.025227 -3.018743  9.970419
   scf:   14    -8522.261436    -8520.514436    -8520.514436  0.136161 -3.026337  5.422590
   scf:   15    -8522.195649    -8521.565362    -8521.565362  0.067263 -3.004898  3.101566
   scf:   16    -8521.842515    -8521.826320    -8521.826321  0.056370 -3.001637  1.540842
   scf:   17    -8521.928178    -8521.928579    -8521.928579  0.041771 -3.007253  0.426845
   scf:   18    -8521.939287    -8521.935786    -8521.935786  0.008932 -2.999982  0.365171
   scf:   19    -8521.937968    -8521.940854    -8521.940854  0.009742 -2.983564  0.416917
   scf:   20    -8521.939524    -8521.943292    -8521.943292  0.010407 -2.980912  0.207824
   scf:   21    -8521.944767    -8521.944585    -8521.944585  0.004441 -2.978831  0.230318
   scf:   22    -8521.947404    -8521.946092    -8521.946093  0.003095 -2.969062  0.243725
   scf:   23    -8521.948189    -8521.947191    -8521.947191  0.002187 -2.961043  0.229331
   scf:   24    -8521.953086    -8521.951075    -8521.951075  0.010788 -2.919833  0.043281
   scf:   25    -8521.951110    -8521.951099    -8521.951099  0.000436 -2.919073  0.031621
   scf:   26    -8521.951210    -8521.951176    -8521.951176  0.000753 -2.913549  0.025231
   scf:   27    -8521.951202    -8521.951189    -8521.951190  0.000158 -2.912722  0.022565
   scf:   28    -8521.951325    -8521.951270    -8521.951270  0.001096 -2.905187  0.016167
   scf:   29    -8521.951274    -8521.951272    -8521.951272  0.000069 -2.904344  0.013166
   scf:   30    -8521.951332    -8521.951306    -8521.951307  0.000577 -2.903789  0.011981
   scf:   31    -8521.951311    -8521.951309    -8521.951309  0.000046 -2.903684  0.011544
   scf:   32    -8521.951328    -8521.951321    -8521.951321  0.000409 -2.901421  0.006801
   scf:   33    -8521.951321    -8521.951321    -8521.951321  0.000022 -2.901357  0.006596
   scf:   34    -8521.951324    -8521.951323    -8521.951323  0.000170 -2.901111  0.004223
   scf:   35    -8521.951323    -8521.951323    -8521.951323  0.000038 -2.900831  0.002848
   scf:   36    -8521.951323    -8521.951323    -8521.951323  0.000020 -2.900726  0.002371
   scf:   37    -8521.951324    -8521.951323    -8521.951324  0.000073 -2.900779  0.002045
   scf:   38    -8521.951323    -8521.951323    -8521.951324  0.000018 -2.900789  0.001947
   scf:   39    -8521.951323    -8521.951323    -8521.951324  0.000020 -2.900760  0.001701
   scf:   40    -8521.951323    -8521.951323    -8521.951324  0.000025 -2.900834  0.001173
   scf:   41    -8521.951324    -8521.951323    -8521.951324  0.000009 -2.900914  0.001025
   scf:   42    -8521.951324    -8521.951324    -8521.951324  0.000068 -2.901177  0.000738

SCF Convergence by DM+H criterion
max |DM_out - DM_in|         :     0.0000684227
max |H_out - H_in|      (eV) :     0.0007384809
SCF cycle converged after 42 iterations

Using DM_out to compute the final energy and forces
No. of atoms with KB's overlaping orbs in proc 0. Max # of overlaps:       9      59

siesta: E_KS(eV) =            -8521.9513

siesta: E_KS - E_eggbox =     -8521.9513

siesta: Atomic forces (eV/Ang):
----------------------------------------
   Tot   -0.005460   -0.020169    0.009779
----------------------------------------
   Max    2.826962
   Res    1.292034    sqrt( Sum f_i^2 / 3N )
----------------------------------------
   Max    2.826962    constrained

Stress tensor Voigt[x,y,z,yz,xz,xy] (kbar):        0.62        0.71        0.08       -0.41       -0.34       -0.14
(Free)E + p*V (eV/cell)    -8524.2937
Target enthalpy (eV/cell)    -8521.9513

siesta: Stress tensor (static) (eV/Ang**3):
         0.000418   -0.000114   -0.000225
        -0.000114    0.000502   -0.000227
        -0.000225   -0.000227    0.000139

siesta: Pressure (static):         -0.56575585  kBar

siesta: Stress tensor (total) (eV/Ang**3):
         0.000389   -0.000090   -0.000213
        -0.000090    0.000441   -0.000255
        -0.000213   -0.000255    0.000048

siesta: Pressure (total):         -0.46911042  kBar

siesta: Temp_ion =     700.000 K

                     ====================================
                        Begin MD step =      2
                     ====================================

outcell: Unit cell vectors (Ang):
       20.000000    0.000000    0.000000
        0.000000   20.000000    0.000000
        0.000000    0.000000   20.000000

outcell: Cell vector modules (Ang)   :   20.000000   20.000000   20.000000
outcell: Cell angles (23,13,12) (deg):     90.0000     90.0000     90.0000
outcell: Cell volume (Ang**3)        :   8000.0000
<dSpData1D:S at geom step 2
  <sparsity:sparsity for geom step 2
    nrows_g=79 nrows=79 sparsity=.6789 nnzs=4237, refcount: 7>
  <dData1D:(new from dSpData1D) n=4237, refcount: 1>
refcount: 1>
new_DM -- step:     2
Re-using DM from previous geometries...
Number of DMs in history: 1
 DM extrapolation coefficients: 
1   1.00000
New DM after history re-use:
<dSpData2D:SpM extrapolated using coords
  <sparsity:sparsity for geom step 2
    nrows_g=79 nrows=79 sparsity=.6789 nnzs=4237, refcount: 9>
  <dData2D:(temp array for extrapolation) n=4237 m=1, refcount: 1>
refcount: 1>
No. of atoms with KB's overlaping orbs in proc 0. Max # of overlaps:       9      59

InitMesh: MESH = 180 x 180 x 180 = 5832000
InitMesh: Mesh cutoff (required, used) =   200.000   223.865 Ry
New grid distribution [1]: sub = 2

        iscf     Eharris(eV)        E_KS(eV)     FreeEng(eV)     dDmax    Ef(eV) dHmax(eV)
   scf:    1    -8521.767810    -8521.848690    -8521.848690  0.024207 -2.938116  0.399240
   scf:    2    -8517.692315    -8520.502006    -8520.502010  0.130701 -2.859465  5.293063
   scf:    3    -8521.936918    -8521.857626    -8521.857626  0.123173 -2.933078  0.117236
   scf:    4    -8521.858501    -8521.858179    -8521.858179  0.001772 -2.931134  0.074153
   scf:    5    -8521.858493    -8521.858353    -8521.858353  0.000661 -2.929307  0.074906
   scf:    6    -8521.859216    -8521.858897    -8521.858898  0.002563 -2.918639  0.053228
   scf:    7    -8521.858985    -8521.858995    -8521.858996  0.001397 -2.908943  0.038747
   scf:    8    -8521.858753    -8521.858931    -8521.858931  0.001043 -2.904276  0.048325
   scf:    9    -8521.859003    -8521.859021    -8521.859021  0.000898 -2.902783  0.018193
   scf:   10    -8521.859025    -8521.859023    -8521.859024  0.000110 -2.901659  0.015979
   scf:   11    -8521.859041    -8521.859038    -8521.859038  0.000467 -2.896999  0.010501
   scf:   12    -8521.859042    -8521.859041    -8521.859042  0.000214 -2.896399  0.005354
   scf:   13    -8521.859042    -8521.859042    -8521.859042  0.000019 -2.896338  0.005232
   scf:   14    -8521.859045    -8521.859044    -8521.859044  0.000092 -2.896083  0.003598
   scf:   15    -8521.859045    -8521.859045    -8521.859045  0.000178 -2.895071  0.001485
   scf:   16    -8521.859045    -8521.859045    -8521.859045  0.000013 -2.894932  0.001326
   scf:   17    -8521.859045    -8521.859045    -8521.859045  0.000021 -2.894643  0.000912

SCF Convergence by DM+H criterion
max |DM_out - DM_in|         :     0.0000209286
max |H_out - H_in|      (eV) :     0.0009119998
SCF cycle converged after 17 iterations

Using DM_out to compute the final energy and forces
No. of atoms with KB's overlaping orbs in proc 0. Max # of overlaps:       9      59

siesta: E_KS(eV) =            -8521.8590

siesta: Atomic forces (eV/Ang):
----------------------------------------
   Tot    0.009608   -0.026187   -0.002006
----------------------------------------
   Max    3.972723
   Res    1.550488    sqrt( Sum f_i^2 / 3N )
----------------------------------------
   Max    3.972723    constrained

Stress tensor Voigt[x,y,z,yz,xz,xy] (kbar):        0.30        0.48        0.02       -0.46       -0.34       -0.21
(Free)E + p*V (eV/cell)    -8523.2014
Target enthalpy (eV/cell)    -8521.8590

siesta: Stress tensor (static) (eV/Ang**3):
         0.000216   -0.000158   -0.000227
        -0.000158    0.000363   -0.000259
        -0.000227   -0.000258    0.000106

siesta: Pressure (static):         -0.36547783  kBar

siesta: Stress tensor (total) (eV/Ang**3):
         0.000186   -0.000134   -0.000215
        -0.000134    0.000302   -0.000286
        -0.000215   -0.000286    0.000015

siesta: Pressure (total):         -0.26883240  kBar

siesta: Temp_ion =     622.858 K

                     ====================================
                        Begin MD step =      3
                     ====================================

outcell: Unit cell vectors (Ang):
       20.000000    0.000000    0.000000
        0.000000   20.000000    0.000000
        0.000000    0.000000   20.000000

outcell: Cell vector modules (Ang)   :   20.000000   20.000000   20.000000
outcell: Cell angles (23,13,12) (deg):     90.0000     90.0000     90.0000
outcell: Cell volume (Ang**3)        :   8000.0000
<dSpData1D:S at geom step 3
  <sparsity:sparsity for geom step 3
    nrows_g=79 nrows=79 sparsity=.6789 nnzs=4237, refcount: 7>
  <dData1D:(new from dSpData1D) n=4237, refcount: 1>
refcount: 1>
new_DM -- step:     3
Re-using DM from previous geometries...
Number of DMs in history: 1
 DM extrapolation coefficients: 
1   1.00000
New DM after history re-use:
<dSpData2D:SpM extrapolated using coords
  <sparsity:sparsity for geom step 3
    nrows_g=79 nrows=79 sparsity=.6789 nnzs=4237, refcount: 9>
  <dData2D:(temp array for extrapolation) n=4237 m=1, refcount: 1>
refcount: 1>
No. of atoms with KB's overlaping orbs in proc 0. Max # of overlaps:       9      59

InitMesh: MESH = 180 x 180 x 180 = 5832000
InitMesh: Mesh cutoff (required, used) =   200.000   223.865 Ry
New grid distribution [1]: sub = 2

        iscf     Eharris(eV)        E_KS(eV)     FreeEng(eV)     dDmax    Ef(eV) dHmax(eV)
   scf:    1    -8521.801639    -8521.922148    -8521.922148  0.017279 -2.852774  0.473603
   scf:    2    -8515.813039    -8519.934931    -8519.934940  0.170468 -2.858306  5.350636
   scf:    3    -8522.037858    -8521.932913    -8521.932914  0.161944 -2.855639  0.151578
   scf:    4    -8521.934245    -8521.934088    -8521.934088  0.004003 -2.860161  0.099090
   scf:    5    -8521.934441    -8521.934468    -8521.934468  0.002699 -2.863987  0.072765
   scf:    6    -8521.934811    -8521.934754    -8521.934754  0.001191 -2.868275  0.037667
   scf:    7    -8521.934971    -8521.934906    -8521.934906  0.001581 -2.875381  0.031978
   scf:    8    -8521.934938    -8521.934924    -8521.934924  0.000240 -2.875951  0.023521
   scf:    9    -8521.934957    -8521.934951    -8521.934951  0.000503 -2.878483  0.021780
   scf:   10    -8521.934955    -8521.934953    -8521.934953  0.000070 -2.878947  0.020581
   scf:   11    -8521.934956    -8521.934959    -8521.934959  0.000367 -2.881847  0.012388
   scf:   12    -8521.934960    -8521.934960    -8521.934960  0.000088 -2.882780  0.010577
   scf:   13    -8521.934960    -8521.934961    -8521.934961  0.000196 -2.884493  0.006284
   scf:   14    -8521.934962    -8521.934961    -8521.934962  0.000012 -2.884561  0.005850
   scf:   15    -8521.934965    -8521.934964    -8521.934964  0.000238 -2.884591  0.001602
   scf:   16    -8521.934964    -8521.934964    -8521.934964  0.000020 -2.884611  0.001196
   scf:   17    -8521.934964    -8521.934964    -8521.934964  0.000019 -2.884653  0.000907

SCF Convergence by DM+H criterion
max |DM_out - DM_in|         :     0.0000192896
max |H_out - H_in|      (eV) :     0.0009072868
SCF cycle converged after 17 iterations

Using DM_out to compute the final energy and forces
No. of atoms with KB's overlaping orbs in proc 0. Max # of overlaps:       9      59

siesta: E_KS(eV) =            -8521.9350

siesta: Atomic forces (eV/Ang):
----------------------------------------
   Tot    0.007304   -0.026352   -0.014090
----------------------------------------
   Max    3.057978
   Res    1.387125    sqrt( Sum f_i^2 / 3N )
----------------------------------------
   Max    3.057978    constrained

Stress tensor Voigt[x,y,z,yz,xz,xy] (kbar):        0.37        0.49       -0.03       -0.50       -0.33       -0.22
(Free)E + p*V (eV/cell)    -8523.3098
Target enthalpy (eV/cell)    -8521.9350

siesta: Stress tensor (static) (eV/Ang**3):
         0.000254   -0.000169   -0.000223
        -0.000169    0.000355   -0.000290
        -0.000223   -0.000290    0.000068

siesta: Pressure (static):         -0.36133313  kBar

siesta: Stress tensor (total) (eV/Ang**3):
         0.000229   -0.000139   -0.000208
        -0.000139    0.000305   -0.000310
        -0.000208   -0.000310   -0.000018

siesta: Pressure (total):         -0.27533836  kBar

siesta: Temp_ion =     686.308 K

                     ====================================
                        Begin MD step =      4
                     ====================================

outcell: Unit cell vectors (Ang):
       20.000000    0.000000    0.000000
        0.000000   20.000000    0.000000
        0.000000    0.000000   20.000000

outcell: Cell vector modules (Ang)   :   20.000000   20.000000   20.000000
outcell: Cell angles (23,13,12) (deg):     90.0000     90.0000     90.0000
outcell: Cell volume (Ang**3)        :   8000.0000
<dSpData1D:S at geom step 4
  <sparsity:sparsity for geom step 4
    nrows_g=79 nrows=79 sparsity=.6789 nnzs=4237, refcount: 7>
  <dData1D:(new from dSpData1D) n=4237, refcount: 1>
refcount: 1>
new_DM -- step:     4
Re-using DM from previous geometries...
Number of DMs in history: 1
 DM extrapolation coefficients: 
1   1.00000
New DM after history re-use:
<dSpData2D:SpM extrapolated using coords
  <sparsity:sparsity for geom step 4
    nrows_g=79 nrows=79 sparsity=.6789 nnzs=4237, refcount: 9>
  <dData2D:(temp array for extrapolation) n=4237 m=1, refcount: 1>
refcount: 1>
No. of atoms with KB's overlaping orbs in proc 0. Max # of overlaps:       9      59

InitMesh: MESH = 180 x 180 x 180 = 5832000
InitMesh: Mesh cutoff (required, used) =   200.000   223.865 Ry
New grid distribution [1]: sub = 2

        iscf     Eharris(eV)        E_KS(eV)     FreeEng(eV)     dDmax    Ef(eV) dHmax(eV)
   scf:    1    -8521.829922    -8522.022058    -8522.022058  0.041991 -2.769752  0.782963
   scf:    2    -8513.444897    -8519.232826    -8519.232843  0.201855 -2.852933  6.643504
   scf:    3    -8522.188408    -8522.038751    -8522.038751  0.192059 -2.780541  0.298576
   scf:    4    -8522.040914    -8522.041674    -8522.041674  0.006555 -2.798332  0.213810
   scf:    5    -8522.041358    -8522.042538    -8522.042538  0.005930 -2.809152  0.178196
   scf:    6    -8522.043446    -8522.043372    -8522.043372  0.001939 -2.820646  0.092644
   scf:    7    -8522.043639    -8522.043692    -8522.043692  0.003159 -2.845494  0.092401
   scf:    8    -8522.043813    -8522.043773    -8522.043773  0.000607 -2.847951  0.089986
   scf:    9    -8522.043696    -8522.043803    -8522.043803  0.001245 -2.862910  0.054305
   scf:   10    -8522.043825    -8522.043815    -8522.043816  0.000192 -2.865043  0.043508
   scf:   11    -8522.043868    -8522.043879    -8522.043879  0.001017 -2.869235  0.014780
   scf:   12    -8522.043888    -8522.043883    -8522.043884  0.000078 -2.869802  0.010816
   scf:   13    -8522.043899    -8522.043894    -8522.043894  0.000244 -2.871587  0.007947
   scf:   14    -8522.043896    -8522.043895    -8522.043895  0.000054 -2.871855  0.005920
   scf:   15    -8522.043897    -8522.043896    -8522.043896  0.000093 -2.872362  0.003686
   scf:   16    -8522.043897    -8522.043897    -8522.043897  0.000058 -2.872846  0.003278
   scf:   17    -8522.043897    -8522.043897    -8522.043897  0.000014 -2.872862  0.003075
   scf:   18    -8522.043898    -8522.043897    -8522.043897  0.000028 -2.872808  0.002702
   scf:   19    -8522.043899    -8522.043898    -8522.043898  0.000061 -2.872744  0.002658
   scf:   20    -8522.043898    -8522.043898    -8522.043898  0.000016 -2.872711  0.002571
   scf:   21    -8522.043898    -8522.043898    -8522.043899  0.000042 -2.872478  0.001459
   scf:   22    -8522.043898    -8522.043898    -8522.043899  0.000015 -2.872429  0.001076
   scf:   23    -8522.043899    -8522.043898    -8522.043899  0.000022 -2.872410  0.000834

SCF Convergence by DM+H criterion
max |DM_out - DM_in|         :     0.0000218028
max |H_out - H_in|      (eV) :     0.0008342391
SCF cycle converged after 23 iterations

Using DM_out to compute the final energy and forces
No. of atoms with KB's overlaping orbs in proc 0. Max # of overlaps:       9      59

siesta: E_KS(eV) =            -8522.0439

siesta: Atomic forces (eV/Ang):
----------------------------------------
   Tot    0.000349   -0.028510   -0.020366
----------------------------------------
   Max    2.883133
   Res    1.125475    sqrt( Sum f_i^2 / 3N )
----------------------------------------
   Max    2.883133    constrained

Stress tensor Voigt[x,y,z,yz,xz,xy] (kbar):        0.64        0.59       -0.09       -0.55       -0.32       -0.18
(Free)E + p*V (eV/cell)    -8523.9384
Target enthalpy (eV/cell)    -8522.0439

siesta: Stress tensor (static) (eV/Ang**3):
         0.000438   -0.000147   -0.000220
        -0.000147    0.000422   -0.000332
        -0.000220   -0.000332    0.000028

siesta: Pressure (static):         -0.47417209  kBar

siesta: Stress tensor (total) (eV/Ang**3):
         0.000397   -0.000114   -0.000199
        -0.000114    0.000368   -0.000342
        -0.000199   -0.000342   -0.000055

siesta: Pressure (total):         -0.37941707  kBar

siesta: Temp_ion =     781.483 K

                     ====================================
                        Begin MD step =      5
                     ====================================

outcell: Unit cell vectors (Ang):
       20.000000    0.000000    0.000000
        0.000000   20.000000    0.000000
        0.000000    0.000000   20.000000

outcell: Cell vector modules (Ang)   :   20.000000   20.000000   20.000000
outcell: Cell angles (23,13,12) (deg):     90.0000     90.0000     90.0000
outcell: Cell volume (Ang**3)        :   8000.0000
<dSpData1D:S at geom step 5
  <sparsity:sparsity for geom step 5
    nrows_g=79 nrows=79 sparsity=.6789 nnzs=4237, refcount: 7>
  <dData1D:(new from dSpData1D) n=4237, refcount: 1>
refcount: 1>
new_DM -- step:     5
Re-using DM from previous geometries...
Number of DMs in history: 1
 DM extrapolation coefficients: 
1   1.00000
New DM after history re-use:
<dSpData2D:SpM extrapolated using coords
  <sparsity:sparsity for geom step 5
    nrows_g=79 nrows=79 sparsity=.6789 nnzs=4237, refcount: 9>
  <dData2D:(temp array for extrapolation) n=4237 m=1, refcount: 1>
refcount: 1>
No. of atoms with KB's overlaping orbs in proc 0. Max # of overlaps:       9      59

InitMesh: MESH = 180 x 180 x 180 = 5832000
InitMesh: Mesh cutoff (required, used) =   200.000   223.865 Ry
New grid distribution [1]: sub = 2

        iscf     Eharris(eV)        E_KS(eV)     FreeEng(eV)     dDmax    Ef(eV) dHmax(eV)
   scf:    1    -8521.704545    -8521.996352    -8521.996353  0.045008 -2.712106  1.004087
   scf:    2    -8508.684636    -8517.657023    -8517.657068  0.258445 -2.825229  8.809484
   scf:    3    -8522.233707    -8522.018469    -8522.018469  0.247150 -2.726391  0.418450
   scf:    4    -8522.019254    -8522.022222    -8522.022222  0.007712 -2.754441  0.314676
   scf:    5    -8522.020630    -8522.023333    -8522.023333  0.007914 -2.769539  0.247726
   scf:    6    -8522.024470    -8522.024477    -8522.024477  0.003155 -2.790582  0.158952
   scf:    7    -8522.024099    -8522.024636    -8522.024636  0.004717 -2.847675  0.140543
   scf:    8    -8522.025104    -8522.024976    -8522.024976  0.001980 -2.847229  0.124083
   scf:    9    -8522.025229    -8522.025222    -8522.025223  0.001374 -2.856063  0.056918
   scf:   10    -8522.025289    -8522.025257    -8522.025257  0.000289 -2.856648  0.045517
   scf:   11    -8522.025369    -8522.025358    -8522.025358  0.001192 -2.856074  0.016233
   scf:   12    -8522.025373    -8522.025369    -8522.025369  0.000327 -2.856314  0.005198
   scf:   13    -8522.025372    -8522.025371    -8522.025371  0.000082 -2.857306  0.004593
   scf:   14    -8522.025372    -8522.025371    -8522.025372  0.000029 -2.857560  0.004219
   scf:   15    -8522.025375    -8522.025374    -8522.025374  0.000115 -2.857013  0.002282
   scf:   16    -8522.025375    -8522.025374    -8522.025374  0.000044 -2.856853  0.002248
   scf:   17    -8522.025375    -8522.025375    -8522.025375  0.000024 -2.856867  0.001943
   scf:   18    -8522.025375    -8522.025375    -8522.025375  0.000051 -2.856965  0.001719
   scf:   19    -8522.025375    -8522.025375    -8522.025375  0.000019 -2.857027  0.001259
   scf:   20    -8522.025376    -8522.025375    -8522.025376  0.000033 -2.857289  0.001252
   scf:   21    -8522.025376    -8522.025375    -8522.025376  0.000015 -2.857397  0.001112
   scf:   22    -8522.025376    -8522.025375    -8522.025376  0.000018 -2.857396  0.000908

SCF Convergence by DM+H criterion
max |DM_out - DM_in|         :     0.0000180659
max |H_out - H_in|      (eV) :     0.0009081812
SCF cycle converged after 22 iterations

Using DM_out to compute the final energy and forces
No. of atoms with KB's overlaping orbs in proc 0. Max # of overlaps:       9      59

siesta: E_KS(eV) =            -8522.0254

siesta: Atomic forces (eV/Ang):
----------------------------------------
   Tot   -0.003282   -0.031004   -0.018615
----------------------------------------
   Max    3.057194
   Res    1.164277    sqrt( Sum f_i^2 / 3N )
----------------------------------------
   Max    3.057194    constrained

Stress tensor Voigt[x,y,z,yz,xz,xy] (kbar):        0.86        0.66       -0.15       -0.61       -0.30       -0.13
(Free)E + p*V (eV/cell)    -8524.3063
Target enthalpy (eV/cell)    -8522.0254

siesta: Stress tensor (static) (eV/Ang**3):
         0.000595   -0.000114   -0.000214
        -0.000114    0.000475   -0.000378
        -0.000214   -0.000378   -0.000013

siesta: Pressure (static):         -0.56469203  kBar

siesta: Stress tensor (total) (eV/Ang**3):
         0.000538   -0.000083   -0.000189
        -0.000083    0.000409   -0.000382
        -0.000189   -0.000382   -0.000092

siesta: Pressure (total):         -0.45679670  kBar

siesta: Temp_ion =     768.783 K

                     ====================================
                        Begin MD step =      6
                     ====================================

outcell: Unit cell vectors (Ang):
       20.000000    0.000000    0.000000
        0.000000   20.000000    0.000000
        0.000000    0.000000   20.000000

outcell: Cell vector modules (Ang)   :   20.000000   20.000000   20.000000
outcell: Cell angles (23,13,12) (deg):     90.0000     90.0000     90.0000
outcell: Cell volume (Ang**3)        :   8000.0000
<dSpData1D:S at geom step 6
  <sparsity:sparsity for geom step 6
    nrows_g=79 nrows=79 sparsity=.6789 nnzs=4237, refcount: 7>
  <dData1D:(new from dSpData1D) n=4237, refcount: 1>
refcount: 1>
new_DM -- step:     6
Re-using DM from previous geometries...
Number of DMs in history: 1
 DM extrapolation coefficients: 
1   1.00000
New DM after history re-use:
<dSpData2D:SpM extrapolated using coords
  <sparsity:sparsity for geom step 6
    nrows_g=79 nrows=79 sparsity=.6789 nnzs=4237, refcount: 9>
  <dData2D:(temp array for extrapolation) n=4237 m=1, refcount: 1>
refcount: 1>
No. of atoms with KB's overlaping orbs in proc 0. Max # of overlaps:       9      59

InitMesh: MESH = 180 x 180 x 180 = 5832000
InitMesh: Mesh cutoff (required, used) =   200.000   223.865 Ry
New grid distribution [1]: sub = 2

        iscf     Eharris(eV)        E_KS(eV)     FreeEng(eV)     dDmax    Ef(eV) dHmax(eV)
   scf:    1    -8521.569691    -8521.905033    -8521.905033  0.031596 -2.709425  1.038863
   scf:    2    -8500.328612    -8514.842953    -8514.843105  0.347163 -2.763126 11.868902
   scf:    3    -8522.225515    -8521.929055    -8521.929055  0.334214 -2.719311  0.455036
   scf:    4    -8521.925357    -8521.931522    -8521.931522  0.009361 -2.746026  0.385194
   scf:    5    -8521.932049    -8521.934166    -8521.934166  0.008573 -2.758909  0.224927
   scf:    6    -8521.934532    -8521.934936    -8521.934936  0.003453 -2.782733  0.144828
   scf:    7    -8521.931270    -8521.933787    -8521.933787  0.005653 -2.846304  0.177682
   scf:    8    -8521.935874    -8521.935447    -8521.935447  0.004163 -2.839302  0.077778
   scf:    9    -8521.935692    -8521.935642    -8521.935643  0.001145 -2.841809  0.040905
   scf:   10    -8521.935684    -8521.935665    -8521.935665  0.000220 -2.841766  0.032918
   scf:   11    -8521.935725    -8521.935711    -8521.935711  0.000656 -2.840648  0.018002
   scf:   12    -8521.935722    -8521.935717    -8521.935717  0.000083 -2.840799  0.014537
   scf:   13    -8521.935741    -8521.935733    -8521.935733  0.000384 -2.841547  0.007132
   scf:   14    -8521.935736    -8521.935735    -8521.935735  0.000025 -2.841493  0.006161
   scf:   15    -8521.935744    -8521.935741    -8521.935741  0.000211 -2.841142  0.002818
   scf:   16    -8521.935741    -8521.935741    -8521.935741  0.000027 -2.841138  0.002938
   scf:   17    -8521.935742    -8521.935741    -8521.935742  0.000028 -2.841099  0.002633
   scf:   18    -8521.935742    -8521.935742    -8521.935742  0.000013 -2.841060  0.002348
   scf:   19    -8521.935742    -8521.935742    -8521.935742  0.000029 -2.841041  0.001790
   scf:   20    -8521.935742    -8521.935742    -8521.935742  0.000016 -2.841051  0.001445
   scf:   21    -8521.935742    -8521.935742    -8521.935742  0.000024 -2.841015  0.000936

SCF Convergence by DM+H criterion
max |DM_out - DM_in|         :     0.0000240025
max |H_out - H_in|      (eV) :     0.0009361890
SCF cycle converged after 21 iterations

Using DM_out to compute the final energy and forces
No. of atoms with KB's overlaping orbs in proc 0. Max # of overlaps:       9      59

siesta: E_KS(eV) =            -8521.9357

siesta: Atomic forces (eV/Ang):
----------------------------------------
   Tot    0.003666   -0.038618   -0.015810
----------------------------------------
   Max    3.177663
   Res    1.310524    sqrt( Sum f_i^2 / 3N )
----------------------------------------
   Max    3.177663    constrained

Stress tensor Voigt[x,y,z,yz,xz,xy] (kbar):        0.93        0.64       -0.21       -0.67       -0.28       -0.09
(Free)E + p*V (eV/cell)    -8524.2165
Target enthalpy (eV/cell)    -8521.9357

siesta: Stress tensor (static) (eV/Ang**3):
         0.000641   -0.000085   -0.000203
        -0.000085    0.000469   -0.000417
        -0.000203   -0.000417   -0.000056

siesta: Pressure (static):         -0.56292065  kBar

siesta: Stress tensor (total) (eV/Ang**3):
         0.000583   -0.000056   -0.000176
        -0.000056    0.000401   -0.000420
        -0.000176   -0.000420   -0.000129

siesta: Pressure (total):         -0.45677865  kBar

siesta: Temp_ion =     689.863 K

                     ====================================
                        Begin MD step =      7
                     ====================================

outcell: Unit cell vectors (Ang):
       20.000000    0.000000    0.000000
        0.000000   20.000000    0.000000
        0.000000    0.000000   20.000000

outcell: Cell vector modules (Ang)   :   20.000000   20.000000   20.000000
outcell: Cell angles (23,13,12) (deg):     90.0000     90.0000     90.0000
outcell: Cell volume (Ang**3)        :   8000.0000
<dSpData1D:S at geom step 7
  <sparsity:sparsity for geom step 7
    nrows_g=79 nrows=79 sparsity=.6789 nnzs=4237, refcount: 7>
  <dData1D:(new from dSpData1D) n=4237, refcount: 1>
refcount: 1>
new_DM -- step:     7
Re-using DM from previous geometries...
Number of DMs in history: 1
 DM extrapolation coefficients: 
1   1.00000
New DM after history re-use:
<dSpData2D:SpM extrapolated using coords
  <sparsity:sparsity for geom step 7
    nrows_g=79 nrows=79 sparsity=.6789 nnzs=4237, refcount: 9>
  <dData2D:(temp array for extrapolation) n=4237 m=1, refcount: 1>
refcount: 1>
No. of atoms with KB's overlaping orbs in proc 0. Max # of overlaps:       9      59

InitMesh: MESH = 180 x 180 x 180 = 5832000
InitMesh: Mesh cutoff (required, used) =   200.000   223.865 Ry
New grid distribution [1]: sub = 2

        iscf     Eharris(eV)        E_KS(eV)     FreeEng(eV)     dDmax    Ef(eV) dHmax(eV)
   scf:    1    -8521.566282    -8521.864811    -8521.864811  0.019120 -2.755657  0.908698
   scf:    2    -8487.359475    -8510.541128    -8510.541733  0.458500 -2.668439 15.545895
   scf:    3    -8522.312997    -8521.891261    -8521.891261  0.443128 -2.757252  0.357730
   scf:    4    -8521.884790    -8521.891444    -8521.891444  0.008339 -2.769408  0.360681
   scf:    5    -8521.894602    -8521.894889    -8521.894890  0.007386 -2.778023  0.121612
   scf:    6    -8521.894831    -8521.895138    -8521.895138  0.002735 -2.790917  0.082382
   scf:    7    -8521.890688    -8521.893794    -8521.893794  0.005604 -2.821553  0.169759
   scf:    8    -8521.895694    -8521.895409    -8521.895409  0.004043 -2.821575  0.035615
   scf:    9    -8521.895490    -8521.895473    -8521.895473  0.000657 -2.823719  0.016812
   scf:   10    -8521.895487    -8521.895481    -8521.895481  0.000157 -2.823949  0.012882
   scf:   11    -8521.895497    -8521.895491    -8521.895491  0.000196 -2.823730  0.010248
   scf:   12    -8521.895499    -8521.895496    -8521.895496  0.000167 -2.824305  0.009499
   scf:   13    -8521.895500    -8521.895498    -8521.895498  0.000111 -2.825312  0.006687
   scf:   14    -8521.895501    -8521.895500    -8521.895500  0.000061 -2.825460  0.006370
   scf:   15    -8521.895511    -8521.895506    -8521.895506  0.000252 -2.824311  0.003359
   scf:   16    -8521.895508    -8521.895507    -8521.895507  0.000064 -2.824095  0.003537
   scf:   17    -8521.895509    -8521.895508    -8521.895508  0.000061 -2.823961  0.003150
   scf:   18    -8521.895509    -8521.895509    -8521.895509  0.000020 -2.823957  0.002741
   scf:   19    -8521.895509    -8521.895509    -8521.895509  0.000035 -2.824238  0.002554
   scf:   20    -8521.895509    -8521.895509    -8521.895509  0.000021 -2.824493  0.001938
   scf:   21    -8521.895509    -8521.895509    -8521.895509  0.000018 -2.824550  0.001269
   scf:   22    -8521.895510    -8521.895509    -8521.895510  0.000029 -2.824478  0.001106
   scf:   23    -8521.895510    -8521.895509    -8521.895510  0.000008 -2.824515  0.001012
   scf:   24    -8521.895510    -8521.895510    -8521.895510  0.000018 -2.824538  0.000761

SCF Convergence by DM+H criterion
max |DM_out - DM_in|         :     0.0000179169
max |H_out - H_in|      (eV) :     0.0007611790
SCF cycle converged after 24 iterations

Using DM_out to compute the final energy and forces
No. of atoms with KB's overlaping orbs in proc 0. Max # of overlaps:       9      59

siesta: E_KS(eV) =            -8521.8955

siesta: Atomic forces (eV/Ang):
----------------------------------------
   Tot   -0.006503   -0.049914   -0.004232
----------------------------------------
   Max    3.240051
   Res    1.375672    sqrt( Sum f_i^2 / 3N )
----------------------------------------
   Max    3.240051    constrained

Stress tensor Voigt[x,y,z,yz,xz,xy] (kbar):        0.83        0.54       -0.26       -0.72       -0.25       -0.05
(Free)E + p*V (eV/cell)    -8523.7388
Target enthalpy (eV/cell)    -8521.8955

siesta: Stress tensor (static) (eV/Ang**3):
         0.000568   -0.000062   -0.000185
        -0.000062    0.000401   -0.000442
        -0.000185   -0.000442   -0.000100

siesta: Pressure (static):         -0.46441045  kBar

siesta: Stress tensor (total) (eV/Ang**3):
         0.000517   -0.000031   -0.000158
        -0.000031    0.000339   -0.000450
        -0.000158   -0.000450   -0.000164

siesta: Pressure (total):         -0.36916456  kBar

siesta: Temp_ion =     654.067 K

                     ====================================
                        Begin MD step =      8
                     ====================================

outcell: Unit cell vectors (Ang):
       20.000000    0.000000    0.000000
        0.000000   20.000000    0.000000
        0.000000    0.000000   20.000000

outcell: Cell vector modules (Ang)   :   20.000000   20.000000   20.000000
outcell: Cell angles (23,13,12) (deg):     90.0000     90.0000     90.0000
outcell: Cell volume (Ang**3)        :   8000.0000
<dSpData1D:S at geom step 8
  <sparsity:sparsity for geom step 8
    nrows_g=79 nrows=79 sparsity=.6892 nnzs=4301, refcount: 7>
  <dData1D:(new from dSpData1D) n=4301, refcount: 1>
refcount: 1>
new_DM -- step:     8
Re-using DM from previous geometries...
Number of DMs in history: 1
 DM extrapolation coefficients: 
1   1.00000
New DM after history re-use:
<dSpData2D:SpM extrapolated using coords
  <sparsity:sparsity for geom step 8
    nrows_g=79 nrows=79 sparsity=.6892 nnzs=4301, refcount: 9>
  <dData2D:(temp array for extrapolation) n=4301 m=1, refcount: 1>
refcount: 1>
No. of atoms with KB's overlaping orbs in proc 0. Max # of overlaps:       9      59

InitMesh: MESH = 180 x 180 x 180 = 5832000
InitMesh: Mesh cutoff (required, used) =   200.000   223.865 Ry
New grid distribution [1]: sub = 2

        iscf     Eharris(eV)        E_KS(eV)     FreeEng(eV)     dDmax    Ef(eV) dHmax(eV)
   scf:    1    -8521.690263    -8521.923143    -8521.923143  0.017402 -2.819606  0.769144
   scf:    2    -8475.375306    -8506.638261    -8506.639877  0.541210 -2.573198 18.341905
   scf:    3    -8522.512738    -8521.954392    -8521.954392  0.523271 -2.813122  0.172154
   scf:    4    -8521.954846    -8521.955163    -8521.955164  0.003408 -2.812536  0.115343
   scf:    5    -8521.956367    -8521.956101    -8521.956102  0.002459 -2.814386  0.044049
   scf:    6    -8521.956376    -8521.956286    -8521.956286  0.001125 -2.814088  0.031863
   scf:    7    -8521.956352    -8521.956342    -8521.956342  0.000936 -2.813910  0.026503
   scf:    8    -8521.956427    -8521.956400    -8521.956400  0.000850 -2.812024  0.014489
   scf:    9    -8521.956426    -8521.956416    -8521.956416  0.000339 -2.810811  0.007788
   scf:   10    -8521.956419    -8521.956417    -8521.956417  0.000065 -2.810556  0.007455
   scf:   11    -8521.956425    -8521.956422    -8521.956423  0.000265 -2.809404  0.004255
   scf:   12    -8521.956424    -8521.956423    -8521.956423  0.000054 -2.809158  0.004136
   scf:   13    -8521.956424    -8521.956424    -8521.956424  0.000022 -2.809012  0.003692
   scf:   14    -8521.956425    -8521.956424    -8521.956424  0.000045 -2.808854  0.002809
   scf:   15    -8521.956425    -8521.956424    -8521.956424  0.000029 -2.808644  0.002623
   scf:   16    -8521.956425    -8521.956425    -8521.956425  0.000023 -2.808490  0.002055
   scf:   17    -8521.956425    -8521.956425    -8521.956425  0.000038 -2.808157  0.001304
   scf:   18    -8521.956425    -8521.956425    -8521.956425  0.000014 -2.808082  0.001215
   scf:   19    -8521.956425    -8521.956425    -8521.956425  0.000030 -2.807921  0.000671

SCF Convergence by DM+H criterion
max |DM_out - DM_in|         :     0.0000304608
max |H_out - H_in|      (eV) :     0.0006705123
SCF cycle converged after 19 iterations

Using DM_out to compute the final energy and forces
No. of atoms with KB's overlaping orbs in proc 0. Max # of overlaps:       9      59

siesta: E_KS(eV) =            -8521.9564

siesta: Atomic forces (eV/Ang):
----------------------------------------
   Tot   -0.011332   -0.056638    0.001454
----------------------------------------
   Max    3.229875
   Res    1.317765    sqrt( Sum f_i^2 / 3N )
----------------------------------------
   Max    3.229875    constrained

Stress tensor Voigt[x,y,z,yz,xz,xy] (kbar):        0.53        0.34       -0.33       -0.73       -0.21       -0.02
(Free)E + p*V (eV/cell)    -8522.8416
Target enthalpy (eV/cell)    -8521.9564

siesta: Stress tensor (static) (eV/Ang**3):
         0.000383   -0.000044   -0.000158
        -0.000044    0.000268   -0.000443
        -0.000158   -0.000443   -0.000150

siesta: Pressure (static):         -0.26758665  kBar

siesta: Stress tensor (total) (eV/Ang**3):
         0.000328   -0.000013   -0.000131
        -0.000013    0.000210   -0.000457
        -0.000131   -0.000457   -0.000206

siesta: Pressure (total):         -0.17728297  kBar

siesta: Temp_ion =     709.949 K

                     ====================================
                        Begin MD step =      9
                     ====================================

outcell: Unit cell vectors (Ang):
       20.000000    0.000000    0.000000
        0.000000   20.000000    0.000000
        0.000000    0.000000   20.000000

outcell: Cell vector modules (Ang)   :   20.000000   20.000000   20.000000
outcell: Cell angles (23,13,12) (deg):     90.0000     90.0000     90.0000
outcell: Cell volume (Ang**3)        :   8000.0000
<dSpData1D:S at geom step 9
  <sparsity:sparsity for geom step 9
    nrows_g=79 nrows=79 sparsity=.6892 nnzs=4301, refcount: 7>
  <dData1D:(new from dSpData1D) n=4301, refcount: 1>
refcount: 1>
new_DM -- step:     9
Re-using DM from previous geometries...
Number of DMs in history: 1
 DM extrapolation coefficients: 
1   1.00000
New DM after history re-use:
<dSpData2D:SpM extrapolated using coords
  <sparsity:sparsity for geom step 9
    nrows_g=79 nrows=79 sparsity=.6892 nnzs=4301, refcount: 9>
  <dData2D:(temp array for extrapolation) n=4301 m=1, refcount: 1>
refcount: 1>
No. of atoms with KB's overlaping orbs in proc 0. Max # of overlaps:       9      59

InitMesh: MESH = 180 x 180 x 180 = 5832000
InitMesh: Mesh cutoff (required, used) =   200.000   223.865 Ry
New grid distribution [1]: sub = 2

        iscf     Eharris(eV)        E_KS(eV)     FreeEng(eV)     dDmax    Ef(eV) dHmax(eV)
   scf:    1    -8521.824424    -8522.030015    -8522.030015  0.030546 -2.866246  0.967664
   scf:    2    -8465.898940    -8503.603030    -8503.606015  0.595814 -2.493885 20.274279
   scf:    3    -8522.758286    -8522.068088    -8522.068088  0.575502 -2.853982  0.130585
   scf:    4    -8522.068813    -8522.068722    -8522.068722  0.002597 -2.849898  0.121012
   scf:    5    -8522.069958    -8522.069496    -8522.069496  0.001766 -2.843399  0.099600
   scf:    6    -8522.070204    -8522.070003    -8522.070003  0.003080 -2.826997  0.091501
   scf:    7    -8522.069864    -8522.070011    -8522.070011  0.001513 -2.819717  0.078213
   scf:    8    -8522.069956    -8522.070064    -8522.070064  0.001353 -2.802028  0.039801
   scf:    9    -8522.070108    -8522.070107    -8522.070107  0.000844 -2.795420  0.017671
   scf:   10    -8522.070116    -8522.070112    -8522.070112  0.000074 -2.794545  0.014732
   scf:   11    -8522.070132    -8522.070130    -8522.070130  0.000408 -2.791341  0.006927
   scf:   12    -8522.070131    -8522.070131    -8522.070131  0.000124 -2.790852  0.003942
   scf:   13    -8522.070131    -8522.070131    -8522.070131  0.000017 -2.790908  0.003565
   scf:   14    -8522.070134    -8522.070133    -8522.070133  0.000131 -2.791586  0.001227
   scf:   15    -8522.070133    -8522.070133    -8522.070133  0.000014 -2.791539  0.001126
   scf:   16    -8522.070134    -8522.070133    -8522.070133  0.000040 -2.791615  0.000817

SCF Convergence by DM+H criterion
max |DM_out - DM_in|         :     0.0000403594
max |H_out - H_in|      (eV) :     0.0008170994
SCF cycle converged after 16 iterations

Using DM_out to compute the final energy and forces
No. of atoms with KB's overlaping orbs in proc 0. Max # of overlaps:       9      59

siesta: E_KS(eV) =            -8522.0701

siesta: Atomic forces (eV/Ang):
----------------------------------------
   Tot   -0.016193   -0.048868    0.006469
----------------------------------------
   Max    3.138142
   Res    1.153881    sqrt( Sum f_i^2 / 3N )
----------------------------------------
   Max    3.138142    constrained

Stress tensor Voigt[x,y,z,yz,xz,xy] (kbar):        0.03        0.01       -0.41       -0.69       -0.15       -0.01
(Free)E + p*V (eV/cell)    -8521.4539
Target enthalpy (eV/cell)    -8522.0701

siesta: Stress tensor (static) (eV/Ang**3):
         0.000093   -0.000034   -0.000118
        -0.000034    0.000070   -0.000412
        -0.000118   -0.000412   -0.000210

siesta: Pressure (static):          0.02538647  kBar

siesta: Stress tensor (total) (eV/Ang**3):
         0.000019   -0.000006   -0.000092
        -0.000006    0.000008   -0.000431
        -0.000092   -0.000431   -0.000258

siesta: Pressure (total):          0.12340546  kBar

siesta: Temp_ion =     812.075 K

                     ====================================
                        Begin MD step =     10
                     ====================================

outcell: Unit cell vectors (Ang):
       20.000000    0.000000    0.000000
        0.000000   20.000000    0.000000
        0.000000    0.000000   20.000000

outcell: Cell vector modules (Ang)   :   20.000000   20.000000   20.000000
outcell: Cell angles (23,13,12) (deg):     90.0000     90.0000     90.0000
outcell: Cell volume (Ang**3)        :   8000.0000
<dSpData1D:S at geom step 10
  <sparsity:sparsity for geom step 10
    nrows_g=79 nrows=79 sparsity=.6892 nnzs=4301, refcount: 7>
  <dData1D:(new from dSpData1D) n=4301, refcount: 1>
refcount: 1>
new_DM -- step:    10
Re-using DM from previous geometries...
Number of DMs in history: 1
 DM extrapolation coefficients: 
1   1.00000
New DM after history re-use:
<dSpData2D:SpM extrapolated using coords
  <sparsity:sparsity for geom step 10
    nrows_g=79 nrows=79 sparsity=.6892 nnzs=4301, refcount: 9>
  <dData2D:(temp array for extrapolation) n=4301 m=1, refcount: 1>
refcount: 1>
No. of atoms with KB's overlaping orbs in proc 0. Max # of overlaps:       9      59

InitMesh: MESH = 180 x 180 x 180 = 5832000
InitMesh: Mesh cutoff (required, used) =   200.000   223.865 Ry
New grid distribution [1]: sub = 2

        iscf     Eharris(eV)        E_KS(eV)     FreeEng(eV)     dDmax    Ef(eV) dHmax(eV)
   scf:    1    -8521.835989    -8522.074286    -8522.074286  0.044542 -2.867317  1.009809
   scf:    2    -8465.210083    -8503.412632    -8503.414921  0.604016 -2.461223 20.411877
   scf:    3    -8522.828093    -8522.114211    -8522.114211  0.583344 -2.853924  0.195154
   scf:    4    -8522.115773    -8522.115243    -8522.115243  0.002349 -2.848249  0.157654
   scf:    5    -8522.118056    -8522.117051    -8522.117051  0.004418 -2.833712  0.123936
   scf:    6    -8522.117855    -8522.117654    -8522.117654  0.003230 -2.817319  0.085860
   scf:    7    -8522.117561    -8522.117659    -8522.117659  0.001167 -2.809713  0.082231
   scf:    8    -8522.117547    -8522.117694    -8522.117694  0.001309 -2.783562  0.032258
   scf:    9    -8522.117773    -8522.117756    -8522.117756  0.000834 -2.778059  0.016949
   scf:   10    -8522.117768    -8522.117762    -8522.117762  0.000092 -2.777523  0.014007
   scf:   11    -8522.117778    -8522.117777    -8522.117777  0.000382 -2.775920  0.003104
   scf:   12    -8522.117777    -8522.117777    -8522.117777  0.000010 -2.775976  0.002987
   scf:   13    -8522.117779    -8522.117779    -8522.117779  0.000077 -2.776261  0.002003
   scf:   14    -8522.117779    -8522.117779    -8522.117779  0.000020 -2.776128  0.001756
   scf:   15    -8522.117779    -8522.117779    -8522.117779  0.000022 -2.776044  0.001517
   scf:   16    -8522.117779    -8522.117779    -8522.117779  0.000037 -2.775918  0.001054
   scf:   17    -8522.117779    -8522.117779    -8522.117779  0.000009 -2.775900  0.000960

SCF Convergence by DM+H criterion
max |DM_out - DM_in|         :     0.0000085873
max |H_out - H_in|      (eV) :     0.0009601782
SCF cycle converged after 17 iterations

Using DM_out to compute the final energy and forces
No. of atoms with KB's overlaping orbs in proc 0. Max # of overlaps:       9      59

siesta: E_KS(eV) =            -8522.1178

siesta: Atomic forces (eV/Ang):
----------------------------------------
   Tot   -0.009356   -0.036649    0.018251
----------------------------------------
   Max    2.957922
   Res    1.034385    sqrt( Sum f_i^2 / 3N )
----------------------------------------
   Max    2.957922    constrained

Stress tensor Voigt[x,y,z,yz,xz,xy] (kbar):       -0.60       -0.41       -0.51       -0.59       -0.07       -0.02
(Free)E + p*V (eV/cell)    -8519.5758
Target enthalpy (eV/cell)    -8522.1178

siesta: Stress tensor (static) (eV/Ang**3):
        -0.000280   -0.000036   -0.000067
        -0.000036   -0.000184   -0.000347
        -0.000067   -0.000347   -0.000280

siesta: Pressure (static):          0.39697205  kBar

siesta: Stress tensor (total) (eV/Ang**3):
        -0.000377   -0.000015   -0.000041
        -0.000015   -0.000256   -0.000367
        -0.000041   -0.000367   -0.000320

siesta: Pressure (total):          0.50909116  kBar

siesta: Temp_ion =     851.916 K

                     ====================================
                        Begin MD step =     11
                     ====================================

outcell: Unit cell vectors (Ang):
       20.000000    0.000000    0.000000
        0.000000   20.000000    0.000000
        0.000000    0.000000   20.000000

outcell: Cell vector modules (Ang)   :   20.000000   20.000000   20.000000
outcell: Cell angles (23,13,12) (deg):     90.0000     90.0000     90.0000
outcell: Cell volume (Ang**3)        :   8000.0000
<dSpData1D:S at geom step 11
  <sparsity:sparsity for geom step 11
    nrows_g=79 nrows=79 sparsity=.6892 nnzs=4301, refcount: 7>
  <dData1D:(new from dSpData1D) n=4301, refcount: 1>
refcount: 1>
new_DM -- step:    11
Re-using DM from previous geometries...
Number of DMs in history: 1
 DM extrapolation coefficients: 
1   1.00000
New DM after history re-use:
<dSpData2D:SpM extrapolated using coords
  <sparsity:sparsity for geom step 11
    nrows_g=79 nrows=79 sparsity=.6892 nnzs=4301, refcount: 9>
  <dData2D:(temp array for extrapolation) n=4301 m=1, refcount: 1>
refcount: 1>
No. of atoms with KB's overlaping orbs in proc 0. Max # of overlaps:       9      59

InitMesh: MESH = 180 x 180 x 180 = 5832000
InitMesh: Mesh cutoff (required, used) =   200.000   223.865 Ry
New grid distribution [1]: sub = 2

        iscf     Eharris(eV)        E_KS(eV)     FreeEng(eV)     dDmax    Ef(eV) dHmax(eV)
   scf:    1    -8521.692160    -8521.988864    -8521.988864  0.045221 -2.816634  0.893715
   scf:    2    -8471.667560    -8505.474819    -8505.475696  0.570034 -2.476760 19.125948
   scf:    3    -8522.661801    -8522.024570    -8522.024570  0.551001 -2.806976  0.316673
   scf:    4    -8522.026714    -8522.025904    -8522.025904  0.002002 -2.803553  0.264414
   scf:    5    -8522.029826    -8522.028582    -8522.028582  0.005960 -2.794888  0.089562
   scf:    6    -8522.029169    -8522.029080    -8522.029080  0.002485 -2.786834  0.073833
   scf:    7    -8522.029168    -8522.029157    -8522.029157  0.000831 -2.783923  0.050065
   scf:    8    -8522.029118    -8522.029178    -8522.029178  0.001061 -2.774205  0.023341
   scf:    9    -8522.029231    -8522.029223    -8522.029223  0.000667 -2.764435  0.013466
   scf:   10    -8522.029228    -8522.029226    -8522.029226  0.000110 -2.764158  0.013988
   scf:   11    -8522.029231    -8522.029230    -8522.029230  0.000193 -2.763292  0.011890
   scf:   12    -8522.029236    -8522.029234    -8522.029234  0.000170 -2.762359  0.007090
   scf:   13    -8522.029236    -8522.029235    -8522.029235  0.000071 -2.761942  0.004831
   scf:   14    -8522.029237    -8522.029237    -8522.029237  0.000115 -2.761870  0.002994
   scf:   15    -8522.029238    -8522.029237    -8522.029237  0.000032 -2.762260  0.002579
   scf:   16    -8522.029238    -8522.029238    -8522.029238  0.000016 -2.762395  0.002273
   scf:   17    -8522.029238    -8522.029238    -8522.029238  0.000045 -2.761990  0.001532
   scf:   18    -8522.029238    -8522.029238    -8522.029238  0.000012 -2.761804  0.001413
   scf:   19    -8522.029238    -8522.029238    -8522.029238  0.000044 -2.761664  0.001399
   scf:   20    -8522.029238    -8522.029238    -8522.029238  0.000013 -2.761637  0.001294
   scf:   21    -8522.029238    -8522.029238    -8522.029238  0.000014 -2.761483  0.000966

SCF Convergence by DM+H criterion
max |DM_out - DM_in|         :     0.0000144596
max |H_out - H_in|      (eV) :     0.0009659654
SCF cycle converged after 21 iterations

Using DM_out to compute the final energy and forces
No. of atoms with KB's overlaping orbs in proc 0. Max # of overlaps:       9      59

siesta: E_KS(eV) =            -8522.0292

siesta: Atomic forces (eV/Ang):
----------------------------------------
   Tot   -0.007663   -0.018775    0.013035
----------------------------------------
   Max    2.685598
   Res    1.218052    sqrt( Sum f_i^2 / 3N )
----------------------------------------
   Max    2.685598    constrained

Stress tensor Voigt[x,y,z,yz,xz,xy] (kbar):       -1.21       -0.84       -0.64       -0.44        0.04       -0.07
(Free)E + p*V (eV/cell)    -8517.5419
Target enthalpy (eV/cell)    -8522.0292

siesta: Stress tensor (static) (eV/Ang**3):
        -0.000653   -0.000060   -0.000001
        -0.000060   -0.000447   -0.000254
        -0.000001   -0.000254   -0.000362

siesta: Pressure (static):          0.78107370  kBar

siesta: Stress tensor (total) (eV/Ang**3):
        -0.000758   -0.000045    0.000025
        -0.000045   -0.000526   -0.000272
         0.000025   -0.000272   -0.000398

siesta: Pressure (total):          0.89869343  kBar

siesta: Temp_ion =     774.299 K

                     ====================================
                        Begin MD step =     12
                     ====================================

outcell: Unit cell vectors (Ang):
       20.000000    0.000000    0.000000
        0.000000   20.000000    0.000000
        0.000000    0.000000   20.000000

outcell: Cell vector modules (Ang)   :   20.000000   20.000000   20.000000
outcell: Cell angles (23,13,12) (deg):     90.0000     90.0000     90.0000
outcell: Cell volume (Ang**3)        :   8000.0000
<dSpData1D:S at geom step 12
  <sparsity:sparsity for geom step 12
    nrows_g=79 nrows=79 sparsity=.6892 nnzs=4301, refcount: 7>
  <dData1D:(new from dSpData1D) n=4301, refcount: 1>
refcount: 1>
new_DM -- step:    12
Re-using DM from previous geometries...
Number of DMs in history: 1
 DM extrapolation coefficients: 
1   1.00000
New DM after history re-use:
<dSpData2D:SpM extrapolated using coords
  <sparsity:sparsity for geom step 12
    nrows_g=79 nrows=79 sparsity=.6892 nnzs=4301, refcount: 9>
  <dData2D:(temp array for extrapolation) n=4301 m=1, refcount: 1>
refcount: 1>
No. of atoms with KB's overlaping orbs in proc 0. Max # of overlaps:       9      59

InitMesh: MESH = 180 x 180 x 180 = 5832000
InitMesh: Mesh cutoff (required, used) =   200.000   223.865 Ry
New grid distribution [1]: sub = 2

        iscf     Eharris(eV)        E_KS(eV)     FreeEng(eV)     dDmax    Ef(eV) dHmax(eV)
[...]

siesta: Pressure (static):          1.25723707  kBar

siesta: Stress tensor (total) (eV/Ang**3):
        -0.000884   -0.000298    0.000429
        -0.000298   -0.000804    0.000466
         0.000429    0.000466   -0.000877

siesta: Pressure (total):          1.36996235  kBar

siesta: Temp_ion =     765.808 K

                     ====================================
                        Begin MD step =     23
                     ====================================

outcell: Unit cell vectors (Ang):
       20.000000    0.000000    0.000000
        0.000000   20.000000    0.000000
        0.000000    0.000000   20.000000

outcell: Cell vector modules (Ang)   :   20.000000   20.000000   20.000000
outcell: Cell angles (23,13,12) (deg):     90.0000     90.0000     90.0000
outcell: Cell volume (Ang**3)        :   8000.0000
<dSpData1D:S at geom step 23
  <sparsity:sparsity for geom step 23
    nrows_g=79 nrows=79 sparsity=.7250 nnzs=4525, refcount: 7>
  <dData1D:(new from dSpData1D) n=4525, refcount: 1>
refcount: 1>
new_DM -- step:    23
Re-using DM from previous geometries...
Number of DMs in history: 1
 DM extrapolation coefficients: 
1   1.00000
New DM after history re-use:
<dSpData2D:SpM extrapolated using coords
  <sparsity:sparsity for geom step 23
    nrows_g=79 nrows=79 sparsity=.7250 nnzs=4525, refcount: 9>
  <dData2D:(temp array for extrapolation) n=4525 m=1, refcount: 1>
refcount: 1>
No. of atoms with KB's overlaping orbs in proc 0. Max # of overlaps:       9      59

InitMesh: MESH = 180 x 180 x 180 = 5832000
InitMesh: Mesh cutoff (required, used) =   200.000   223.865 Ry
New grid distribution [1]: sub = 2

        iscf     Eharris(eV)        E_KS(eV)     FreeEng(eV)     dDmax    Ef(eV) dHmax(eV)
   scf:    1    -8522.229505    -8522.112350    -8522.112352  0.025661 -2.789920  0.618830
   scf:    2    -8496.216266    -8513.626169    -8513.626169  0.312300 -2.768161 13.310791
   scf:    3    -8522.593205    -8522.130399    -8522.130402  0.292796 -2.790106  0.156997
   scf:    4    -8522.125366    -8522.129596    -8522.129598  0.007410 -2.790037  0.186013
   scf:    5    -8522.126591    -8522.130852    -8522.130854  0.009205 -2.790145  0.151808
   scf:    6    -8522.129651    -8522.131666    -8522.131668  0.006661 -2.792973  0.102299
   scf:    7    -8522.130598    -8522.131826    -8522.131829  0.005006 -2.793709  0.075113
   scf:    8    -8522.131559    -8522.132044    -8522.132046  0.003312 -2.794929  0.050614
   scf:    9    -8522.132178    -8522.132149    -8522.132151  0.001344 -2.796550  0.006543
   scf:   10    -8522.132151    -8522.132151    -8522.132153  0.000152 -2.796772  0.004866
   scf:   11    -8522.132152    -8522.132151    -8522.132153  0.000055 -2.796955  0.003936
   scf:   12    -8522.132152    -8522.132152    -8522.132154  0.000055 -2.797092  0.002786
   scf:   13    -8522.132154    -8522.132153    -8522.132155  0.000072 -2.797429  0.003315
   scf:   14    -8522.132153    -8522.132153    -8522.132155  0.000029 -2.797596  0.002895
   scf:   15    -8522.132154    -8522.132153    -8522.132156  0.000062 -2.797957  0.001150
   scf:   16    -8522.132154    -8522.132154    -8522.132156  0.000023 -2.797963  0.000864

SCF Convergence by DM+H criterion
max |DM_out - DM_in|         :     0.0000229740
max |H_out - H_in|      (eV) :     0.0008644207
SCF cycle converged after 16 iterations

Using DM_out to compute the final energy and forces
No. of atoms with KB's overlaping orbs in proc 0. Max # of overlaps:       9      59

siesta: E_KS(eV) =            -8522.1322

siesta: Atomic forces (eV/Ang):
----------------------------------------
   Tot   -0.014961    0.039203   -0.023031
----------------------------------------
   Max    3.474873
   Res    1.419912    sqrt( Sum f_i^2 / 3N )
----------------------------------------
   Max    3.474873    constrained

Stress tensor Voigt[x,y,z,yz,xz,xy] (kbar):       -1.04       -1.02       -1.30        0.69        0.64       -0.48
(Free)E + p*V (eV/cell)    -8516.5455
Target enthalpy (eV/cell)    -8522.1322

siesta: Stress tensor (static) (eV/Ang**3):
        -0.000632   -0.000307    0.000387
        -0.000307   -0.000568    0.000432
         0.000387    0.000432   -0.000698

siesta: Pressure (static):          1.01311937  kBar

siesta: Stress tensor (total) (eV/Ang**3):
        -0.000649   -0.000298    0.000399
        -0.000298   -0.000636    0.000429
         0.000399    0.000429   -0.000809

siesta: Pressure (total):          1.11885051  kBar

siesta: Temp_ion =     854.157 K

                     ====================================
                        Begin MD step =     24
                     ====================================

outcell: Unit cell vectors (Ang):
       20.000000    0.000000    0.000000
        0.000000   20.000000    0.000000
        0.000000    0.000000   20.000000

outcell: Cell vector modules (Ang)   :   20.000000   20.000000   20.000000
outcell: Cell angles (23,13,12) (deg):     90.0000     90.0000     90.0000
outcell: Cell volume (Ang**3)        :   8000.0000
<dSpData1D:S at geom step 24
  <sparsity:sparsity for geom step 24
    nrows_g=79 nrows=79 sparsity=.7250 nnzs=4525, refcount: 7>
  <dData1D:(new from dSpData1D) n=4525, refcount: 1>
refcount: 1>
new_DM -- step:    24
Re-using DM from previous geometries...
Number of DMs in history: 1
 DM extrapolation coefficients: 
1   1.00000
New DM after history re-use:
<dSpData2D:SpM extrapolated using coords
  <sparsity:sparsity for geom step 24
    nrows_g=79 nrows=79 sparsity=.7250 nnzs=4525, refcount: 9>
  <dData2D:(temp array for extrapolation) n=4525 m=1, refcount: 1>
refcount: 1>
No. of atoms with KB's overlaping orbs in proc 0. Max # of overlaps:       9      59

InitMesh: MESH = 180 x 180 x 180 = 5832000
InitMesh: Mesh cutoff (required, used) =   200.000   223.865 Ry
New grid distribution [1]: sub = 2

        iscf     Eharris(eV)        E_KS(eV)     FreeEng(eV)     dDmax    Ef(eV) dHmax(eV)
   scf:    1    -8522.267456    -8522.225850    -8522.225854  0.037294 -2.750623  0.989850
   scf:    2    -8475.439373    -8506.923063    -8506.923063  0.397845 -2.812694 17.895609
   scf:    3    -8523.228475    -8522.261858    -8522.261862  0.375145 -2.756712  0.235355
   scf:    4    -8522.264668    -8522.263763    -8522.263768  0.004020 -2.756993  0.208962
   scf:    5    -8522.258963    -8522.263039    -8522.263043  0.006770 -2.778934  0.235248
   scf:    6    -8522.263492    -8522.266329    -8522.266333  0.010365 -2.790399  0.150679
   scf:    7    -8522.266078    -8522.266644    -8522.266649  0.003938 -2.790175  0.089334
   scf:    8    -8522.265017    -8522.266021    -8522.266025  0.003110 -2.822804  0.134813
   scf:    9    -8522.266933    -8522.266809    -8522.266813  0.003310 -2.823749  0.017596
   scf:   10    -8522.266832    -8522.266828    -8522.266832  0.000457 -2.824670  0.005598
   scf:   11    -8522.266829    -8522.266828    -8522.266832  0.000043 -2.824638  0.004938
   scf:   12    -8522.266829    -8522.266829    -8522.266833  0.000090 -2.824531  0.004510
   scf:   13    -8522.266830    -8522.266829    -8522.266833  0.000033 -2.824600  0.004291
   scf:   14    -8522.266833    -8522.266832    -8522.266836  0.000180 -2.825546  0.002064
   scf:   15    -8522.266832    -8522.266832    -8522.266836  0.000008 -2.825561  0.001945
   scf:   16    -8522.266832    -8522.266832    -8522.266836  0.000094 -2.825542  0.000457

SCF Convergence by DM+H criterion
max |DM_out - DM_in|         :     0.0000935935
max |H_out - H_in|      (eV) :     0.0004568628
SCF cycle converged after 16 iterations

Using DM_out to compute the final energy and forces
No. of atoms with KB's overlaping orbs in proc 0. Max # of overlaps:       9      59

siesta: E_KS(eV) =            -8522.2668

siesta: Atomic forces (eV/Ang):
----------------------------------------
   Tot   -0.030527    0.044759   -0.021304
----------------------------------------
   Max    3.567301
   Res    1.109847    sqrt( Sum f_i^2 / 3N )
----------------------------------------
   Max    3.567301    constrained

Stress tensor Voigt[x,y,z,yz,xz,xy] (kbar):       -0.44       -0.70       -1.08        0.54        0.54       -0.45
(Free)E + p*V (eV/cell)    -8518.5935
Target enthalpy (eV/cell)    -8522.2668

siesta: Stress tensor (static) (eV/Ang**3):
        -0.000247   -0.000297    0.000318
        -0.000297   -0.000376    0.000337
         0.000318    0.000337   -0.000534

siesta: Pressure (static):          0.61774571  kBar

siesta: Stress tensor (total) (eV/Ang**3):
        -0.000272   -0.000283    0.000335
        -0.000283   -0.000434    0.000339
         0.000335    0.000339   -0.000672

siesta: Pressure (total):          0.73567474  kBar

siesta: Temp_ion =     970.286 K

                     ====================================
                        Begin MD step =     25
                     ====================================

outcell: Unit cell vectors (Ang):
       20.000000    0.000000    0.000000
        0.000000   20.000000    0.000000
        0.000000    0.000000   20.000000

outcell: Cell vector modules (Ang)   :   20.000000   20.000000   20.000000
outcell: Cell angles (23,13,12) (deg):     90.0000     90.0000     90.0000
outcell: Cell volume (Ang**3)        :   8000.0000
<dSpData1D:S at geom step 25
  <sparsity:sparsity for geom step 25
    nrows_g=79 nrows=79 sparsity=.7250 nnzs=4525, refcount: 7>
  <dData1D:(new from dSpData1D) n=4525, refcount: 1>
refcount: 1>
new_DM -- step:    25
Re-using DM from previous geometries...
Number of DMs in history: 1
 DM extrapolation coefficients: 
1   1.00000
New DM after history re-use:
<dSpData2D:SpM extrapolated using coords
  <sparsity:sparsity for geom step 25
    nrows_g=79 nrows=79 sparsity=.7250 nnzs=4525, refcount: 9>
  <dData2D:(temp array for extrapolation) n=4525 m=1, refcount: 1>
refcount: 1>
No. of atoms with KB's overlaping orbs in proc 0. Max # of overlaps:       9      59

InitMesh: MESH = 180 x 180 x 180 = 5832000
InitMesh: Mesh cutoff (required, used) =   200.000   223.865 Ry
New grid distribution [1]: sub = 2

        iscf     Eharris(eV)        E_KS(eV)     FreeEng(eV)     dDmax    Ef(eV) dHmax(eV)
   scf:    1    -8522.154941    -8522.217205    -8522.217212  0.041149 -2.737169  1.230334
   scf:    2    -8461.390519    -8502.352455    -8502.352455  0.447176 -2.856619 20.406108
   scf:    3    -8523.697737    -8522.265941    -8522.265948  0.422335 -2.747464  0.409723
   scf:    4    -8522.258702    -8522.262529    -8522.262536  0.002583 -2.747408  0.468675
   scf:    5    -8522.271183    -8522.267964    -8522.267971  0.005716 -2.783629  0.308545
   scf:    6    -8522.116226    -8522.230348    -8522.230356  0.036608 -2.821368  1.008848
   scf:    7    -8522.278033    -8522.257303    -8522.257310  0.010514 -2.821337  0.639913
   scf:    8    -8522.138639    -8522.242625    -8522.242631  0.039611 -2.850574  0.818351
   scf:    9    -8522.281511    -8522.272933    -8522.272940  0.018926 -2.857510  0.137636
   scf:   10    -8522.272447    -8522.273635    -8522.273642  0.005093 -2.853820  0.066223
   scf:   11    -8522.273828    -8522.273857    -8522.273864  0.001928 -2.854395  0.009207
   scf:   12    -8522.273857    -8522.273859    -8522.273866  0.000290 -2.854555  0.006942
   scf:   13    -8522.273863    -8522.273862    -8522.273869  0.000117 -2.855178  0.004777
   scf:   14    -8522.273864    -8522.273863    -8522.273870  0.000091 -2.855733  0.003610
   scf:   15    -8522.273864    -8522.273863    -8522.273870  0.000024 -2.855778  0.003387
   scf:   16    -8522.273866    -8522.273865    -8522.273872  0.000166 -2.855787  0.001391
   scf:   17    -8522.273865    -8522.273865    -8522.273872  0.000005 -2.855761  0.001239
   scf:   18    -8522.273865    -8522.273865    -8522.273872  0.000021 -2.855610  0.000933

SCF Convergence by DM+H criterion
max |DM_out - DM_in|         :     0.0000205537
max |H_out - H_in|      (eV) :     0.0009327538
SCF cycle converged after 18 iterations

Using DM_out to compute the final energy and forces
No. of atoms with KB's overlaping orbs in proc 0. Max # of overlaps:       9      59

siesta: E_KS(eV) =            -8522.2739

siesta: Atomic forces (eV/Ang):
----------------------------------------
   Tot   -0.017606    0.034703   -0.021771
----------------------------------------
   Max    3.554323
   Res    1.070792    sqrt( Sum f_i^2 / 3N )
----------------------------------------
   Max    3.554323    constrained

Stress tensor Voigt[x,y,z,yz,xz,xy] (kbar):        0.16       -0.38       -0.80        0.39        0.42       -0.44
(Free)E + p*V (eV/cell)    -8520.5604
Target enthalpy (eV/cell)    -8522.2739

siesta: Stress tensor (static) (eV/Ang**3):
         0.000133   -0.000288    0.000241
        -0.000288   -0.000185    0.000233
         0.000241    0.000233   -0.000340

siesta: Pressure (static):          0.20920723  kBar

siesta: Stress tensor (total) (eV/Ang**3):
         0.000099   -0.000274    0.000264
        -0.000274   -0.000240    0.000243
         0.000264    0.000243   -0.000502

siesta: Pressure (total):          0.34316970  kBar

siesta: Temp_ion =     977.010 K

coxmol: Writing XMOL coordinates into file simulacio1.xyz                                                                                                                                                                                                                      

siesta: Program's energy decomposition (eV):
siesta: Ebs     =     -1526.643097
siesta: Eions   =     11676.786863
siesta: Ena     =      1571.930859
siesta: Ekin    =      3330.147868
siesta: Enl     =       -34.104312
siesta: Eso     =         0.000000
siesta: Edftu   =         0.000000
siesta: DEna    =        53.698940
siesta: DUscf   =         7.022659
siesta: DUext   =         0.000000
siesta: Ex      =     -1666.580347
siesta: Ec      =      -107.602669
siesta: Exc     =     -1774.183016
siesta: EbV     =         0.000000
siesta: eta*DQ  =         0.000000
siesta: Emadel  =         0.000000
siesta: Emeta   =         0.000000
siesta: Emolmec =         0.000000
siesta: Ekinion =         1.010307
siesta: Eharris =     -8521.263558
siesta: Etot    =     -8521.263558
siesta: FreeEng =     -8521.263565

siesta: Final energy (eV):
siesta:  Band Struct. =   -1526.643097
siesta:       Kinetic =    3330.147868
siesta:       Hartree =   11247.674541
siesta:         Edftu =       0.000000
siesta:       Eso     =       0.000000
siesta:    Ext. field =       0.000000
siesta:         Exch. =   -1666.580347
siesta:         Corr. =    -107.602669
siesta:     Bulk bias =       0.000000
siesta:   Exch.-corr. =   -1774.183016
siesta:  Ion-electron =  -25849.271328
siesta:       Ion-ion =    4523.358071
siesta:       Ekinion =       1.010307
siesta: D3 dispersion =       0.000000
siesta:         Total =   -8521.263558
siesta:         Fermi =      -2.855610

siesta: Atomic forces (eV/Ang):
siesta:      1   -0.310295   -0.229842    0.368487
siesta:      2   -3.554323   -0.283717    1.505299
siesta:      3    0.737273   -0.553609    0.420011
siesta:      4    0.298964   -0.221919    0.208294
siesta:      5    1.967921    1.463327   -2.012188
siesta:      6    0.838048   -0.126601   -0.490114
siesta:      7    0.257390    0.501586   -0.660106
siesta:      8   -1.200135   -0.248527    0.452357
siesta:      9    0.947552   -0.265996    0.186190
siesta: ----------------------------------------
siesta:    Tot   -0.017606    0.034703   -0.021771

siesta: Stress tensor (static) (eV/Ang**3):
siesta:     0.000133   -0.000288    0.000241
siesta:    -0.000288   -0.000185    0.000233
siesta:     0.000241    0.000233   -0.000340

siesta: Cell volume =       8000.000000 Ang**3

siesta: Pressure (static):
siesta:                Solid            Molecule  Units
siesta:           0.00000142         -0.00000004  Ry/Bohr**3
siesta:           0.00013058         -0.00000405  eV/Ang**3
siesta:           0.20920723         -0.00648574  kBar
(Free)E+ p_basis*V_orbitals  =       -8520.140369
(Free)Eharris+ p_basis*V_orbitals  =       -8520.140369

siesta: Electric dipole (a.u.)  =   -1.985386   -2.080933   -0.613086
siesta: Electric dipole (Debye) =   -5.046347   -5.289204   -1.558308

cite: Please see "simulacio1.bib" for an exhaustive BiBTeX file.
cite: Please clearly indicate Siesta version in published work: 5.2.1
cite: This calculation has made use of the following articles
cite: which are encouraged to be cited in a published work.
        Primary SIESTA paper
          DOI: www.doi.org/10.1088/0953-8984/14/11/302


timer: Elapsed wall time (sec) =     355.062
timer: CPU execution times (sec):

Routine            Calls   Time/call    Tot.time        %
siesta                 1     836.515     836.515   100.00
Setup                  1       1.176       1.176     0.14
bands                  1       0.000       0.000     0.00
KSV_init               1       0.000       0.000     0.00
IterGeom              25      33.414     835.338    99.86
geom_init             25       1.247      31.186     3.73
state_init            25       0.017       0.418     0.05
hsparse               25       0.000       0.004     0.00
overlap               25       0.016       0.406     0.05
Setup_H0              25       0.642      16.054     1.92
naefs                 50       0.000       0.003     0.00
dnaefs                50       0.000       0.001     0.00
MolMec                50       0.000       0.000     0.00
kinefsm               50       0.008       0.422     0.05
nlefsm                50       0.073       3.673     0.44
DHSCF_Init            25       0.483      12.081     1.44
DHSCF1                25       0.020       0.506     0.06
InitMesh              25       0.020       0.505     0.06
INITMESH              25       0.000       0.000     0.00
DHSCF2                25       0.463      11.574     1.38
REMESH                25       0.014       0.362     0.04
REORD               1447       0.043      62.116     7.43
PHION                 25       0.130       3.251     0.39
COMM_BSC            2219       0.028      62.804     7.51
POISON               561       0.245     137.673    16.46
fft                 1122       0.090     101.457    12.13
setup_H              511       1.543     788.500    94.26
DHSCF                536       1.508     808.209    96.62
DHSCF3               536       1.495     801.252    95.78
rhoofd               536       0.459     245.868    29.39
XC                   536       0.178      95.316    11.39
GXC-CellXC           536       0.150      80.218     9.59
gridxc@cellXC        536       0.150      80.215     9.59
vmat                 536       0.017       9.167     1.10
IterSCF              486       1.610     782.443    93.54
compute_dm           486       0.018       8.509     1.02
diagon               486       0.017       8.459     1.01
r-eigvec             486       0.011       5.504     0.66
r-buildHS            486       0.000       0.005     0.00
rdiag                486       0.011       5.493     0.66
rdiag1               486       0.001       0.645     0.08
rdiag2               486       0.002       0.765     0.09
rdiag3               486       0.008       3.958     0.47
rdiag4               486       0.000       0.100     0.01
r-buildD             486       0.006       2.833     0.34
MIXER                461       0.000       0.043     0.01
PostSCF               25       0.868      21.690     2.59
FINAL_HF              25       0.868      21.690     2.59
DHSCF4                25       0.278       6.952     0.83
dfscf                 25       0.157       3.928     0.47
overfsm               25       0.001       0.025     0.00
writeHSX              25       0.000       0.003     0.00
state_analysis        25       0.000       0.004     0.00
siesta_move           25       0.000       0.007     0.00
Analysis               1       0.000       0.000     0.00
optical                1       0.000       0.000     0.00
  

>> End of run:   1-JUL-2025  23:21:31
Job completed
Job completed
