Executable      : siesta
Version         : 5.2.1
Architecture    : x86_64
Compiler version: GNU-13.3.0
Compiler flags  : -march=nocona -mtune=haswell -ftree-vectorize -fPIC -fstack-protector-strong -fno-plt -O2 -ffunction-sections -pipe -isystem <prefix>/include -I<prefix>/_build_env/include -fdebug-prefix-map=<prefix>/work=/usr/local/src/conda/siesta-5.2.1 -fdebug-prefix-map=<prefix>=/usr/local/src/conda-prefix -I<prefix>/lib -fallow-argument-mismatch -O3
Parallelisations: none
NetCDF support
NetCDF-4 support
Lua support
DFT-D3 support

Runtime information:
* Directory : /home/samba/homes/convidat/PROJECTE_SSN/simulacio3
* Running in serial mode.
>> Start of run:   1-JUL-2025  23:56:54

                           *********************** 
                           *  WELCOME TO SIESTA  * 
                           *********************** 

 NOTE: Siesta V5 introduces some new defaults for basis-set generation
 NOTE: which might lead to slightly different numerical results.
 NOTE: Please see the manual for full details and compatibility measures.


reinit: Reading from file xoc_IrO2_H2O_simulacio3.fdf

reinit: -----------------------------------------------------------------------
reinit: System Name: IrO2 + H2O collition
reinit: -----------------------------------------------------------------------
reinit: System Label: output_sim3/simulacio3
reinit: -----------------------------------------------------------------------

initatom: Reading input for the pseudopotentials and atomic orbitals ----------
Species number:   1 Atomic number:    8 Label: O
Species number:   2 Atomic number:    1 Label: H
Species number:   3 Atomic number:   77 Label: Ir

Ground state valence configuration (from tables):   2s02  2p04  3d00  4f00
Ground state valence configuration (from tables):   1s01  2p00  3d00  4f00
Ground state valence configuration (from tables):   6s02  6p00  5d07  5f00

---- Processing specs for species: O
Reading pseudopotential information in PSML from:
  O.psml
PSML file version: 1.1
Using libxc ids:  101 130
GGA--PBE XC_GGA_X_PBE--XC_GGA_C_PBE pb
PSML uuid: 3cff85a0-be41-11e7-6c5c-1b1fe64d18ef

---- Processing specs for species: H
Reading pseudopotential information in PSML from:
  H.psml
PSML file version: 1.1
Using libxc ids:  101 130
GGA--PBE XC_GGA_X_PBE--XC_GGA_C_PBE pb
PSML uuid: f95fa9b0-be40-11e7-634a-9594ffff953f

---- Processing specs for species: Ir
Reading pseudopotential information in PSML from:
  Ir.psml
PSML file version: 1.1
Using libxc ids:  101 130
GGA--PBE XC_GGA_X_PBE--XC_GGA_C_PBE pb
PSML uuid: e3f95a80-be45-11e7-61df-5ba3fadd20b7
Semicore shell(s) with  8 electrons included in the valence for Ir

---- Pseudopotential check for O 

Pseudized shells:
2s( 2.00) rc: 1.36
2p( 4.00) rc: 1.46
3d( 0.00) rc: 1.26
Valence configuration for ps generation: 2s:2p: Total charge:   6.000000

---- Pseudopotential check for H 

Pseudized shells:
1s( 1.00) rc: 1.01
2p( 0.00) rc: 0.71
Valence configuration for ps generation: 1s: Total charge:   1.000000

---- Pseudopotential check for Ir

Pseudized shells:
5s( 2.00) rc: 1.60
5p( 6.00) rc: 1.60
5d( 7.00) rc: 1.51
5f( 0.00) rc: 2.27
Valence configuration for ps generation: 5s:5p:5d:6s: Total charge:  17.000000
Semicore shell(s): 5s 5p
Fallback to non-perturbative polarization scheme for Ir
Please see the manual if this is not desired in principle
For O, standard SIESTA heuristics set lmxkb to 3
 (one more than the basis l, including polarization orbitals).
Use PS.lmax or PS.KBprojectors blocks to override.
For H, standard SIESTA heuristics set lmxkb to 2
 (one more than the basis l, including polarization orbitals).
Use PS.lmax or PS.KBprojectors blocks to override.
For Ir, standard SIESTA heuristics set lmxkb to 3
 (one more than the basis l, including polarization orbitals).
Use PS.lmax or PS.KBprojectors blocks to override.
O pseudopotential only contains V_ls up to l=2 -- lmxkb reset.
H pseudopotential only contains V_ls up to l=1 -- lmxkb reset.

<basis_specs>
===============================================================================
O                    Z=   8    Mass=  15.999        Charge= 0.17977+309
Lmxo=2 Lmxkb= 2    BasisType=split      Semic=F
L=0  Nsemic=0  Cnfigmx=2
          i=1  nzeta=1  polorb=0  (2s)
            splnorm:   0.15000    
               vcte:    40.000    
               rinn:  -0.90000    
               qcoe:    0.0000    
               qyuk:    0.0000    
               qwid:   0.10000E-01
                rcs:    0.0000    
            lambdas:    1.0000    
L=1  Nsemic=0  Cnfigmx=2
          i=1  nzeta=1  polorb=1  (2p)  (to be polarized perturbatively)
            splnorm:   0.15000    
               vcte:    40.000    
               rinn:  -0.90000    
               qcoe:    0.0000    
               qyuk:    0.0000    
               qwid:   0.10000E-01
                rcs:    0.0000    
            lambdas:    1.0000    
L=2  Nsemic=0  Cnfigmx=3
          i=1  nzeta=0  polorb=0  (3d)  (perturbative polarization orbital) (from 2p)
-------------------------------------------------------------------------------
L=0  Nkbl=1  erefs: 0.17977+309
L=1  Nkbl=1  erefs: 0.17977+309
L=2  Nkbl=1  erefs: 0.17977+309
===============================================================================
</basis_specs>

Using PAO.SplitTailNorm
atom: Called for O                     (Z =   8)
Maximum radius (at nrval) set to   50.00000 8518

read_vps: Pseudopotential generation method:
read_vps: ONCVPSP-3.Hamann's oncvpsp                        
Valence charge in pseudo generation:    6.00000

read_vps: Pseudopotential includes a core correction:
read_vps: Pseudo-core for xc-correction

xc_check: Exchange-correlation functional:
xc_check: GGA Perdew, Burke & Ernzerhof 1996
Got Vlocal (oncv-fit) from psml data
Choosing vlocal chloc cutoff:  6.020499
qtot up to nchloc:    6.00001015
atom: Maximum radius for chlocal:    6.02050
atom: Maximum radius for r*vlocal+2*Zval:    6.02050
Reading KB projs from O psml data
Using scalar-relativistic projectors in PSML file

PSML: Kleinman-Bylander projectors: 
   l= 0   rc=  1.372412   Ekb= 12.113471
   l= 0   rc=  1.372412   Ekb=  1.648048
   l= 1   rc=  1.474132   Ekb= -9.434259
   l= 1   rc=  1.474132   Ekb= -2.298541
   l= 2   rc=  1.277664   Ekb= -2.663910

PSML: Total number of  Kleinman-Bylander projectors:  13
atom: -------------------------------------------------------------------------

atom: SANKEY-TYPE ORBITALS:

SPLIT: Orbitals with angular momentum L= 0

SPLIT: Basis orbitals for state 2s

SPLIT: PAO cut-off radius determined from an
SPLIT: energy shift=  0.010000 Ry
Split based on tail norm

   izeta = 1
                 lambda =    1.000000
                     rc =    3.532490
                 energy =   -1.750073
                kinetic =    1.592274
    potential(screened) =   -3.342346
       potential(ionic) =  -11.245343

SPLIT: Orbitals with angular momentum L= 1

SPLIT: Basis orbitals for state 2p

SPLIT: PAO cut-off radius determined from an
SPLIT: energy shift=  0.010000 Ry
Split based on tail norm

   izeta = 1
                 lambda =    1.000000
                     rc =    4.299534
                 energy =   -0.652700
                kinetic =    4.625238
    potential(screened) =   -5.277939
       potential(ionic) =  -12.923043

POLgen: Perturbative polarization orbital with L=  2

POLgen: Polarization orbital for state 2p
Split based on tail norm

   izeta = 1
                     rc =    4.299534
                 energy =    2.238408
                kinetic =    4.166258
    potential(screened) =   -1.927850
       potential(ionic) =   -8.042214
atom: Total number of Sankey-type orbitals:  9

atm_pop: Valence configuration (for local Pseudopot. screening):
 2s( 2.00)                                                            
 2p( 4.00)                                                            
 3d( 0.00)                                                            
Vna: chval, zval:    6.00000   6.00000

Vna:  Cut-off radius for the neutral-atom potential:   4.299534
comcore: Pseudo-core radius Rcore=  1.354557

atom: _________________________________________________________________________

<basis_specs>
===============================================================================
H                    Z=   1    Mass=  1.0080        Charge= 0.17977+309
Lmxo=1 Lmxkb= 1    BasisType=split      Semic=F
L=0  Nsemic=0  Cnfigmx=1
          i=1  nzeta=1  polorb=1  (1s)  (to be polarized perturbatively)
            splnorm:   0.15000    
               vcte:    40.000    
               rinn:  -0.90000    
               qcoe:    0.0000    
               qyuk:    0.0000    
               qwid:   0.10000E-01
                rcs:    0.0000    
            lambdas:    1.0000    
L=1  Nsemic=0  Cnfigmx=2
          i=1  nzeta=0  polorb=0  (2p)  (perturbative polarization orbital) (from 1s)
-------------------------------------------------------------------------------
L=0  Nkbl=1  erefs: 0.17977+309
L=1  Nkbl=1  erefs: 0.17977+309
===============================================================================
</basis_specs>

Using PAO.SplitTailNorm
atom: Called for H                     (Z =   1)
Maximum radius (at nrval) set to   50.00000 8518

read_vps: Pseudopotential generation method:
read_vps: ONCVPSP-3.Hamann's oncvpsp                        
Valence charge in pseudo generation:    1.00000

xc_check: Exchange-correlation functional:
xc_check: GGA Perdew, Burke & Ernzerhof 1996
Got Vlocal (oncv-fit) from psml data
Choosing vlocal chloc cutoff:  1.926399
qtot up to nchloc:    0.99999831
atom: Maximum radius for chlocal:    1.92640
atom: Maximum radius for r*vlocal+2*Zval:    1.92640
Reading KB projs from H psml data
Using scalar-relativistic projectors in PSML file

PSML: Kleinman-Bylander projectors: 
   l= 0   rc=  1.022342   Ekb= -3.402247
   l= 0   rc=  1.022342   Ekb= -1.068968
   l= 1   rc=  0.714575   Ekb= -1.006642

PSML: Total number of  Kleinman-Bylander projectors:   5
atom: -------------------------------------------------------------------------

atom: SANKEY-TYPE ORBITALS:

SPLIT: Orbitals with angular momentum L= 0

SPLIT: Basis orbitals for state 1s

SPLIT: PAO cut-off radius determined from an
SPLIT: energy shift=  0.010000 Ry
Split based on tail norm

   izeta = 1
                 lambda =    1.000000
                     rc =    5.232664
                 energy =   -0.466081
                kinetic =    0.956761
    potential(screened) =   -1.422842
       potential(ionic) =   -1.948825

POLgen: Perturbative polarization orbital with L=  1

POLgen: Polarization orbital for state 1s
Split based on tail norm

   izeta = 1
                     rc =    5.232664
                 energy =    0.682216
                kinetic =    1.337348
    potential(screened) =   -0.655132
       potential(ionic) =   -1.143559
atom: Total number of Sankey-type orbitals:  4

atm_pop: Valence configuration (for local Pseudopot. screening):
 1s( 1.00)                                                            
 2p( 0.00)                                                            
Vna: chval, zval:    1.00000   1.00000

Vna:  Cut-off radius for the neutral-atom potential:   5.232664

atom: _________________________________________________________________________

<basis_specs>
===============================================================================
Ir                   Z=  77    Mass=  192.22        Charge= 0.17977+309
Lmxo=2 Lmxkb= 3    BasisType=split      Semic=T
L=0  Nsemic=1  Cnfigmx=6
          i=1  nzeta=1  polorb=0  (5s)  (semicore shell)
            splnorm:   0.15000    
               vcte:    40.000    
               rinn:  -0.90000    
               qcoe:    0.0000    
               qyuk:    0.0000    
               qwid:   0.10000E-01
                rcs:    0.0000    
            lambdas:    1.0000    
          i=2  nzeta=1  polorb=0  (6s)  (to be polarized non-perturbatively)
            splnorm:   0.15000    
               vcte:    40.000    
               rinn:  -0.90000    
               qcoe:    0.0000    
               qyuk:    0.0000    
               qwid:   0.10000E-01
                rcs:    0.0000    
            lambdas:    1.0000    
L=1  Nsemic=1  Cnfigmx=6
          i=1  nzeta=1  polorb=0  (5p)  (semicore shell)
            splnorm:   0.15000    
               vcte:    40.000    
               rinn:  -0.90000    
               qcoe:    0.0000    
               qyuk:    0.0000    
               qwid:   0.10000E-01
                rcs:    0.0000    
            lambdas:    1.0000    
          i=2  nzeta=1  polorb=0  (6p)  (non-perturbative polarization shell)
            splnorm:   0.15000    
               vcte:    40.000    
               rinn:  -0.90000    
               qcoe:   0.19310-311
               qyuk:   0.19763-322
               qwid:   0.21220-312
                rcs:    0.0000    
            lambdas:    1.0000    
L=2  Nsemic=0  Cnfigmx=5
          i=1  nzeta=1  polorb=0  (5d)
            splnorm:   0.15000    
               vcte:    40.000    
               rinn:  -0.90000    
               qcoe:    0.0000    
               qyuk:    0.0000    
               qwid:   0.10000E-01
                rcs:    0.0000    
            lambdas:    1.0000    
-------------------------------------------------------------------------------
L=0  Nkbl=2  erefs: 0.17977+309 0.17977+309
L=1  Nkbl=2  erefs: 0.17977+309 0.17977+309
L=2  Nkbl=1  erefs: 0.17977+309
L=3  Nkbl=1  erefs: 0.17977+309
===============================================================================
</basis_specs>

Using PAO.SplitTailNorm
atom: Called for Ir                    (Z =  77)
Maximum radius (at nrval) set to   50.00000 8518

read_vps: Pseudopotential generation method:
read_vps: ONCVPSP-3.Hamann's oncvpsp                        
Valence charge in pseudo generation:   17.00000

read_vps: Pseudopotential includes a core correction:
read_vps: Pseudo-core for xc-correction

xc_check: Exchange-correlation functional:
xc_check: GGA Perdew, Burke & Ernzerhof 1996
Got Vlocal (oncv-fit) from psml data
Choosing vlocal chloc cutoff:  5.047285
qtot up to nchloc:   16.99999563
atom: Maximum radius for chlocal:    5.04729
atom: Maximum radius for r*vlocal+2*Zval:    5.04729
Reading KB projs from Ir psml data
Using scalar-relativistic projectors in PSML file

PSML: Kleinman-Bylander projectors: 
   l= 0   rc=  1.623671   Ekb=179.823246
   l= 0   rc=  1.625306   Ekb=  5.611620
   l= 1   rc=  1.623671   Ekb= 14.834396
   l= 1   rc=  1.625306   Ekb=  2.223076
   l= 2   rc=  1.530073   Ekb=  4.077077
   l= 2   rc=  1.530073   Ekb=  0.309986
   l= 3   rc=  2.296727   Ekb=  2.269623
   l= 3   rc=  2.296727   Ekb=  0.752356

PSML: Total number of  Kleinman-Bylander projectors:  32
atom: -------------------------------------------------------------------------

atom: SANKEY-TYPE ORBITALS:

SPLIT: Orbitals with angular momentum L= 0

SPLIT: Basis orbitals for state 5s

SPLIT: PAO cut-off radius determined from an
SPLIT: energy shift=  0.010000 Ry
Split based on tail norm

   izeta = 1
                 lambda =    1.000000
                     rc =    2.552107
                 energy =   -7.190699
                kinetic =    2.528468
    potential(screened) =   -9.719167
       potential(ionic) =  -31.933069

SPLIT: Basis orbitals for state 6s

SPLIT: PAO cut-off radius determined from an
SPLIT: energy shift=  0.010000 Ry
Split based on tail norm

   izeta = 1
                 lambda =    1.000000
                     rc =    5.972448
                 energy =   -0.613744
                kinetic =    1.708538
    potential(screened) =   -2.322283
       potential(ionic) =  -16.338063

SPLIT: Orbitals with angular momentum L= 1

SPLIT: Basis orbitals for state 5p

SPLIT: PAO cut-off radius determined from an
SPLIT: energy shift=  0.010000 Ry
Split based on tail norm

   izeta = 1
                 lambda =    1.000000
                     rc =    3.008711
                 energy =   -4.009156
                kinetic =    4.503050
    potential(screened) =   -8.512206
       potential(ionic) =  -29.662854

SPLIT: Basis orbitals for state 6p
SPLIT: Non-perturbative polarization orbs for state 6s
SPLIT: rc(1st zeta) (re)set to: 5.9724 (expansion factor: 1.0000)
Split based on tail norm

   izeta = 1
                 lambda =    1.000000
                     rc =    5.972448
                 energy =    0.024958
                kinetic =    1.334408
    potential(screened) =   -1.309450
       potential(ionic) =  -12.451899

SPLIT: Orbitals with angular momentum L= 2

SPLIT: Basis orbitals for state 5d

SPLIT: PAO cut-off radius determined from an
SPLIT: energy shift=  0.010000 Ry
Split based on tail norm

   izeta = 1
                 lambda =    1.000000
                     rc =    4.829589
                 energy =   -0.514090
                kinetic =    4.494124
    potential(screened) =   -5.008214
       potential(ionic) =  -22.788410
atom: Total number of Sankey-type orbitals: 13

atm_pop: Valence configuration (for local Pseudopot. screening):
 5s( 2.00) 6s( 2.00)                                                  
 5p( 6.00) 6p( 0.00)                                                  
 5d( 7.00)                                                            
Vna: chval, zval:   17.00000  17.00000

Vna:  Cut-off radius for the neutral-atom potential:   5.972448
comcore: Pseudo-core radius Rcore=  2.765497

atom: _________________________________________________________________________

prinput: Basis input 

PAO.BasisType split     

%block ChemicalSpeciesLabel
    1    8 O                       # Species index, atomic number, species label
    2    1 H                       # Species index, atomic number, species label
    3   77 Ir                      # Species index, atomic number, species label
%endblock ChemicalSpeciesLabel

%block PAO.Basis                 # Define Basis set
# WARNING: This information might be incomplete!
O                     2                    # Species label, number of l-shells
 n=2   0   1                         # n, l, Nzeta 
   3.532   
   1.000   
 n=2   1   1 P   1                   # n, l, Nzeta, Polarization, NzetaPol
   4.300   
   1.000   
H                     1                    # Species label, number of l-shells
 n=1   0   1 P   1                   # n, l, Nzeta, Polarization, NzetaPol
   5.233   
   1.000   
Ir                    5                    # Species label, number of l-shells
 n=5   0   1                         # n, l, Nzeta 
   2.552   
   1.000   
 n=6   0   1                         # n, l, Nzeta 
   5.972   
   1.000   
 n=5   1   1                         # n, l, Nzeta 
   3.009   
   1.000   
 n=6   1   1                         # n, l, Nzeta 
   5.972   
   1.000   
 n=5   2   1                         # n, l, Nzeta 
   4.830   
   1.000   
%endblock PAO.Basis

prinput: ----------------------------------------------------------------------

Dumping basis to NetCDF file O.ion.nc
Dumping basis to NetCDF file H.ion.nc
Dumping basis to NetCDF file Ir.ion.nc
coor:   Atomic-coordinates input format  =     Cartesian coordinates
coor:                                          (in Angstroms)

siesta: WARNING: XV file not found

siesta: Atomic coordinates (Bohr) and species
siesta:      0.00027  -0.00060  18.45014  3        1
siesta:      4.25705   4.25644  19.34927  3        2
siesta:      1.98228   6.53111  20.55718  1        3
siesta:      6.53128   1.98254  20.55612  1        4
siesta:      6.23933   6.23919  17.24262  1        5
siesta:      2.27427   2.27385  17.24269  1        6
siesta:      4.25172   4.24805  29.83640  1        7
siesta:      5.69299   5.38863  29.84430  2        8
siesta:      2.81218   5.38802  29.84350  2        9

siesta: System type = molecule  

initatomlists: Number of atoms, orbitals, and projectors:      9    79   139

coxmol: Writing XMOL coordinates into file output_sim3/simulacio3.xyz                                                                                                                                                                                                          

siesta: ******************** Simulation parameters ****************************
siesta:
siesta: The following are some of the parameters of the simulation.
siesta: A complete list of the parameters used, including default values,
siesta: can be found in file out.fdf
siesta:
redata: Spin configuration                          = none
redata: Number of spin components                   = 1
redata: Time-Reversal Symmetry                      = T
redata: Spin spiral                                 = F
redata: Long output                                 =   F
redata: Number of Atomic Species                    =        3
redata: Charge density info will appear in .RHO file
redata: Write Mulliken charges (when)               = none
redata: Write Mulliken Pop.                         = NO
redata: Write Hirshfeld charges (when)              = none
redata: Write Voronoi charges (when)                = none
redata: Write spin charge (when)                    = none
redata: Matel table size (NRTAB)                    =     1024
redata: Mesh Cutoff                                 =   200.0000 Ry
redata: Net charge of the system                    =     0.0000 |e|
redata: Min. number of SCF Iter                     =        0
redata: Max. number of SCF Iter                     =      250
redata: SCF convergence failure will abort job
redata: SCF mix quantity                            = Hamiltonian
redata: Mix DM or H after convergence               =   F
redata: Recompute H after scf cycle                 =   F
redata: Mix DM in first SCF step                    =   T
redata: Write Pulay info on disk                    =   F
redata: New DM Occupancy tolerance                  = 0.000000000001
redata: No kicks to SCF
redata: DM Mixing Weight for Kicks                  =     0.5000
redata: Require Harris convergence for SCF          =   F
redata: Harris energy tolerance for SCF             =     0.000100 eV
redata: Require DM convergence for SCF              =   T
redata: DM tolerance for SCF                        =     0.000300
redata: Require EDM convergence for SCF             =   F
redata: EDM tolerance for SCF                       =     0.001000 eV
redata: Require H convergence for SCF               =   T
redata: Hamiltonian tolerance for SCF               =     0.001000 eV
redata: Require (free) Energy convergence for SCF   =   F
redata: (free) Energy tolerance for SCF             =     0.000100 eV
redata: Using DFT-D3 dispersion                     =   F
redata: Using Saved Data (generic)                  =   F
redata: Use continuation files for DM               =   T
redata: Neglect nonoverlap interactions             =   F
redata: Method of Calculation                       = Diagonalization
redata: Electronic Temperature                      =   290.1130 K
redata: Fix the spin of the system                  =   F
redata: Max. number of TDED Iter                    =        1
redata: Number of TDED substeps                     =        3
redata: Dynamics option                             = Nose thermostat MD run
redata: Initial MD time step                        =        1
redata:   Final MD time step                        =       50
redata: Length of MD time step                      =     0.5000 fs
redata: Initial Temperature of MD run               =   300.0000 K
redata: Perform a MD quench                         =   F
redata: Nose mass                                   =  1360.5693 eV*fs**2
redata: Target Temperature                          = 15000.0000 Kelvin
mix.SCF: Pulay mixing                            = Pulay
mix.SCF:    Variant                              = stable
mix.SCF:    History steps                        = 6
mix.SCF:    Linear mixing weight                 =     0.020000
mix.SCF:    Mixing weight                        =     0.020000
mix.SCF:    SVD condition                        = 0.1000E-07
redata: Save all siesta data in one NC              =   F
redata: ***********************************************************************

%block SCF.Mixers
  Pulay
%endblock SCF.Mixers

%block SCF.Mixer.Pulay
  # Mixing method
  method pulay
  variant stable

  # Mixing options
  weight 0.0200
  weight.linear 0.0200
  history 6
%endblock SCF.Mixer.Pulay

Size of DM history Fstack: 1
Total number of electrons:    66.000000
Total ionic charge:    66.000000
 Kpoints in:            1 . Kpoints trimmed:            1

siesta: k-grid: Number of k-points = 1
siesta: k-points from Monkhorst-Pack grid
siesta: k-cutoff (effective) =    10.000 Ang
siesta: k-point supercell and displacements
siesta: k-grid:     1     0     0      0.000
siesta: k-grid:     0     1     0      0.000
siesta: k-grid:     0     0     1      0.000

diag: Algorithm                                     = D&C
diag: Used triangular part                          = Lower
diag: Absolute tolerance                            =  0.100E-15
diag: Orthogonalization factor                      =  0.100E-05
diag: Memory factor                                 =  1.0000


ts: **************************************************************
ts: Save H and S matrices                           =    F
ts: Save DM and EDM matrices                        =    F
ts: Only save the overlap matrix S                  =    F
ts: **************************************************************

************************ Begin: TS CHECKS AND WARNINGS ************************
************************ End: TS CHECKS AND WARNINGS **************************


                     ====================================
                        Begin MD step =      1
                     ====================================

outcell: Unit cell vectors (Ang):
       20.000000    0.000000    0.000000
        0.000000   20.000000    0.000000
        0.000000    0.000000   20.000000

outcell: Cell vector modules (Ang)   :   20.000000   20.000000   20.000000
outcell: Cell angles (23,13,12) (deg):     90.0000     90.0000     90.0000
outcell: Cell volume (Ang**3)        :   8000.0000
<dSpData1D:S at geom step 1
  <sparsity:sparsity for geom step 1
    nrows_g=79 nrows=79 sparsity=.6789 nnzs=4237, refcount: 7>
  <dData1D:(new from dSpData1D) n=4237, refcount: 1>
refcount: 1>
new_DM -- step:     1
Initializing Density Matrix...

Attempting to read DM from file... Failed...
DM filled with atomic data:
<dSpData2D:DM initialized from atoms
  <sparsity:sparsity for geom step 1
    nrows_g=79 nrows=79 sparsity=.6789 nnzs=4237, refcount: 8>
  <dData2D:DM n=4237 m=1, refcount: 1>
refcount: 1>
No. of atoms with KB's overlaping orbs in proc 0. Max # of overlaps:       9      59

InitMesh: MESH = 180 x 180 x 180 = 5832000
InitMesh: Mesh cutoff (required, used) =   200.000   223.865 Ry
New grid distribution [1]: sub = 2

stepf: Fermi-Dirac step function

siesta: Program's energy decomposition (eV):
siesta: Ebs     =     -1742.642959
siesta: Eions   =     11676.786863
siesta: Ena     =      1574.677460
siesta: Ekin    =      3388.516978
siesta: Enl     =      -140.387753
siesta: Eso     =         0.000000
siesta: Edftu   =         0.000000
siesta: DEna    =        86.482445
siesta: DUscf   =        99.987691
siesta: DUext   =         0.000000
siesta: Ex      =     -1676.779736
siesta: Ec      =      -106.523970
siesta: Exc     =     -1783.303706
siesta: EbV     =         0.000000
siesta: eta*DQ  =         0.000000
siesta: Emadel  =         0.000000
siesta: Emeta   =         0.000000
siesta: Emolmec =         0.000000
siesta: Ekinion =         0.000000
siesta: Eharris =     -8336.744266
siesta: Etot    =     -8450.813748
siesta: FreeEng =     -8450.813748

        iscf     Eharris(eV)        E_KS(eV)     FreeEng(eV)     dDmax    Ef(eV) dHmax(eV)
   scf:    1    -8336.744266    -8450.813748    -8450.813748  1.975149 -0.833142 47.389229
timer: Routine,Calls,Time,% = IterSCF        1       1.611  19.66
   scf:    2    -8485.832368    -8470.448498    -8470.448498  0.279539 -1.170160 36.962808
   scf:    3    -8495.654236    -8486.777933    -8486.777936  0.455220 -1.669983 22.049349
   scf:    4    -8261.051891    -8452.546608    -8452.546608  1.328515 -2.463354 34.635174
   scf:    5    -8471.338375    -8462.196896    -8462.196896  0.063314 -2.654328 31.902721
   scf:    6    -8513.910944    -8519.600733    -8519.600733  1.013836 -3.090114  6.390333
   scf:    7    -8510.902283    -8517.806516    -8517.806516  0.252411 -3.028351  6.974065
   scf:    8    -8503.430594    -8516.458437    -8516.458437  0.424026 -3.054189 10.432796
   scf:    9    -8519.026173    -8520.580024    -8520.580024  0.306853 -2.956054  6.155131
   scf:   10    -8503.252610    -8515.343241    -8515.343241  0.309719 -3.023967 11.343714
   scf:   11    -8518.578103    -8517.073488    -8517.073488  0.065357 -3.016853  9.071269
   scf:   12    -8515.813527    -8516.822259    -8516.822259  0.101645 -3.028814 11.087380
   scf:   13    -8518.850367    -8517.867670    -8517.867670  0.025227 -3.018743  9.970419
   scf:   14    -8522.261436    -8520.514436    -8520.514436  0.136161 -3.026337  5.422590
   scf:   15    -8522.195649    -8521.565362    -8521.565362  0.067263 -3.004898  3.101566
   scf:   16    -8521.842515    -8521.826320    -8521.826321  0.056370 -3.001637  1.540842
   scf:   17    -8521.928178    -8521.928579    -8521.928579  0.041771 -3.007253  0.426845
   scf:   18    -8521.939287    -8521.935786    -8521.935786  0.008932 -2.999982  0.365171
   scf:   19    -8521.937968    -8521.940854    -8521.940854  0.009742 -2.983564  0.416917
   scf:   20    -8521.939524    -8521.943292    -8521.943292  0.010407 -2.980912  0.207824
   scf:   21    -8521.944767    -8521.944585    -8521.944585  0.004441 -2.978831  0.230318
   scf:   22    -8521.947404    -8521.946092    -8521.946093  0.003095 -2.969062  0.243725
   scf:   23    -8521.948189    -8521.947191    -8521.947191  0.002187 -2.961043  0.229331
   scf:   24    -8521.953086    -8521.951075    -8521.951075  0.010788 -2.919833  0.043281
   scf:   25    -8521.951110    -8521.951099    -8521.951099  0.000436 -2.919073  0.031621
   scf:   26    -8521.951210    -8521.951176    -8521.951176  0.000753 -2.913549  0.025231
   scf:   27    -8521.951202    -8521.951189    -8521.951190  0.000158 -2.912722  0.022565
   scf:   28    -8521.951325    -8521.951270    -8521.951270  0.001096 -2.905187  0.016167
   scf:   29    -8521.951274    -8521.951272    -8521.951272  0.000069 -2.904344  0.013166
   scf:   30    -8521.951332    -8521.951306    -8521.951307  0.000577 -2.903789  0.011981
   scf:   31    -8521.951311    -8521.951309    -8521.951309  0.000046 -2.903684  0.011544
   scf:   32    -8521.951328    -8521.951321    -8521.951321  0.000409 -2.901421  0.006801
   scf:   33    -8521.951321    -8521.951321    -8521.951321  0.000022 -2.901357  0.006596
   scf:   34    -8521.951324    -8521.951323    -8521.951323  0.000170 -2.901111  0.004223
   scf:   35    -8521.951323    -8521.951323    -8521.951323  0.000038 -2.900831  0.002848
   scf:   36    -8521.951323    -8521.951323    -8521.951323  0.000020 -2.900726  0.002371
   scf:   37    -8521.951324    -8521.951323    -8521.951324  0.000073 -2.900779  0.002045
   scf:   38    -8521.951323    -8521.951323    -8521.951324  0.000018 -2.900789  0.001947
   scf:   39    -8521.951323    -8521.951323    -8521.951324  0.000020 -2.900760  0.001701
   scf:   40    -8521.951323    -8521.951323    -8521.951324  0.000025 -2.900834  0.001173
   scf:   41    -8521.951324    -8521.951323    -8521.951324  0.000009 -2.900914  0.001025
   scf:   42    -8521.951324    -8521.951324    -8521.951324  0.000068 -2.901177  0.000738

SCF Convergence by DM+H criterion
max |DM_out - DM_in|         :     0.0000684227
max |H_out - H_in|      (eV) :     0.0007384809
SCF cycle converged after 42 iterations

Using DM_out to compute the final energy and forces
No. of atoms with KB's overlaping orbs in proc 0. Max # of overlaps:       9      59

siesta: E_KS(eV) =            -8521.9513

siesta: E_KS - E_eggbox =     -8521.9513

siesta: Atomic forces (eV/Ang):
----------------------------------------
   Tot   -0.005460   -0.020169    0.009779
----------------------------------------
   Max    2.826962
   Res    1.292034    sqrt( Sum f_i^2 / 3N )
----------------------------------------
   Max    2.826962    constrained

Stress tensor Voigt[x,y,z,yz,xz,xy] (kbar):        0.65        0.76        0.16       -0.38       -0.35       -0.17
(Free)E + p*V (eV/cell)    -8524.5694
Target enthalpy (eV/cell)    -8521.9513

siesta: Stress tensor (static) (eV/Ang**3):
         0.000418   -0.000114   -0.000225
        -0.000114    0.000502   -0.000227
        -0.000225   -0.000227    0.000139

siesta: Pressure (static):         -0.56575585  kBar

siesta: Stress tensor (total) (eV/Ang**3):
         0.000406   -0.000103   -0.000220
        -0.000103    0.000476   -0.000239
        -0.000220   -0.000239    0.000100

siesta: Pressure (total):         -0.52433638  kBar

siesta: Temp_ion =     300.840 K

                     ====================================
                        Begin MD step =      2
                     ====================================

outcell: Unit cell vectors (Ang):
       20.000000    0.000000    0.000000
        0.000000   20.000000    0.000000
        0.000000    0.000000   20.000000

outcell: Cell vector modules (Ang)   :   20.000000   20.000000   20.000000
outcell: Cell angles (23,13,12) (deg):     90.0000     90.0000     90.0000
outcell: Cell volume (Ang**3)        :   8000.0000
<dSpData1D:S at geom step 2
  <sparsity:sparsity for geom step 2
    nrows_g=79 nrows=79 sparsity=.6789 nnzs=4237, refcount: 7>
  <dData1D:(new from dSpData1D) n=4237, refcount: 1>
refcount: 1>
new_DM -- step:     2
Re-using DM from previous geometries...
Number of DMs in history: 1
 DM extrapolation coefficients: 
1   1.00000
New DM after history re-use:
<dSpData2D:SpM extrapolated using coords
  <sparsity:sparsity for geom step 2
    nrows_g=79 nrows=79 sparsity=.6789 nnzs=4237, refcount: 9>
  <dData2D:(temp array for extrapolation) n=4237 m=1, refcount: 1>
refcount: 1>
No. of atoms with KB's overlaping orbs in proc 0. Max # of overlaps:       9      59

InitMesh: MESH = 180 x 180 x 180 = 5832000
InitMesh: Mesh cutoff (required, used) =   200.000   223.865 Ry
New grid distribution [1]: sub = 2

        iscf     Eharris(eV)        E_KS(eV)     FreeEng(eV)     dDmax    Ef(eV) dHmax(eV)
   scf:    1    -8521.902726    -8521.919798    -8521.919798  0.008952 -2.916947  0.129557
   scf:    2    -8521.493055    -8521.781655    -8521.781655  0.044798 -2.889838  1.783505
   scf:    3    -8521.929418    -8521.920767    -8521.920767  0.041633 -2.914875  0.037603
   scf:    4    -8521.920856    -8521.920828    -8521.920828  0.000605 -2.913824  0.029825
   scf:    5    -8521.920876    -8521.920853    -8521.920854  0.000266 -2.912673  0.028703
   scf:    6    -8521.920944    -8521.920912    -8521.920912  0.000959 -2.908094  0.016924
   scf:    7    -8521.920904    -8521.920916    -8521.920916  0.000539 -2.904591  0.018805
   scf:    8    -8521.920922    -8521.920920    -8521.920920  0.000136 -2.903035  0.013362
   scf:    9    -8521.920921    -8521.920922    -8521.920922  0.000200 -2.901419  0.005146
   scf:   10    -8521.920923    -8521.920922    -8521.920923  0.000031 -2.901142  0.004456
   scf:   11    -8521.920924    -8521.920924    -8521.920924  0.000129 -2.900116  0.003957
   scf:   12    -8521.920924    -8521.920924    -8521.920924  0.000075 -2.899961  0.002445
   scf:   13    -8521.920924    -8521.920924    -8521.920924  0.000017 -2.899818  0.002186
   scf:   14    -8521.920924    -8521.920924    -8521.920925  0.000051 -2.899443  0.001242
   scf:   15    -8521.920925    -8521.920924    -8521.920925  0.000029 -2.899265  0.000738

SCF Convergence by DM+H criterion
max |DM_out - DM_in|         :     0.0000292594
max |H_out - H_in|      (eV) :     0.0007382173
SCF cycle converged after 15 iterations

Using DM_out to compute the final energy and forces
No. of atoms with KB's overlaping orbs in proc 0. Max # of overlaps:       9      59

siesta: E_KS(eV) =            -8521.9209

siesta: Atomic forces (eV/Ang):
----------------------------------------
   Tot   -0.007667   -0.024126    0.007965
----------------------------------------
   Max    3.248229
   Res    1.379516    sqrt( Sum f_i^2 / 3N )
----------------------------------------
   Max    3.248229    constrained

Stress tensor Voigt[x,y,z,yz,xz,xy] (kbar):        0.53        0.68        0.14       -0.40       -0.36       -0.19
(Free)E + p*V (eV/cell)    -8524.1885
Target enthalpy (eV/cell)    -8521.9209

siesta: Stress tensor (static) (eV/Ang**3):
         0.000347   -0.000127   -0.000227
        -0.000127    0.000453   -0.000239
        -0.000227   -0.000239    0.000128

siesta: Pressure (static):         -0.49566507  kBar

siesta: Stress tensor (total) (eV/Ang**3):
         0.000334   -0.000117   -0.000222
        -0.000117    0.000427   -0.000251
        -0.000222   -0.000251    0.000089

siesta: Pressure (total):         -0.45412967  kBar

siesta: Temp_ion =     275.544 K

                     ====================================
                        Begin MD step =      3
                     ====================================

outcell: Unit cell vectors (Ang):
       20.000000    0.000000    0.000000
        0.000000   20.000000    0.000000
        0.000000    0.000000   20.000000

outcell: Cell vector modules (Ang)   :   20.000000   20.000000   20.000000
outcell: Cell angles (23,13,12) (deg):     90.0000     90.0000     90.0000
outcell: Cell volume (Ang**3)        :   8000.0000
<dSpData1D:S at geom step 3
  <sparsity:sparsity for geom step 3
    nrows_g=79 nrows=79 sparsity=.6789 nnzs=4237, refcount: 7>
  <dData1D:(new from dSpData1D) n=4237, refcount: 1>
refcount: 1>
new_DM -- step:     3
Re-using DM from previous geometries...
Number of DMs in history: 1
 DM extrapolation coefficients: 
1   1.00000
New DM after history re-use:
<dSpData2D:SpM extrapolated using coords
  <sparsity:sparsity for geom step 3
    nrows_g=79 nrows=79 sparsity=.6789 nnzs=4237, refcount: 9>
  <dData2D:(temp array for extrapolation) n=4237 m=1, refcount: 1>
refcount: 1>
No. of atoms with KB's overlaping orbs in proc 0. Max # of overlaps:       9      59

InitMesh: MESH = 180 x 180 x 180 = 5832000
InitMesh: Mesh cutoff (required, used) =   200.000   223.865 Ry
New grid distribution [1]: sub = 2

        iscf     Eharris(eV)        E_KS(eV)     FreeEng(eV)     dDmax    Ef(eV) dHmax(eV)
   scf:    1    -8521.893704    -8521.919362    -8521.919362  0.005609 -2.898462  0.136996
   scf:    2    -8521.267670    -8521.707226    -8521.707227  0.053799 -2.886293  1.907158
   scf:    3    -8521.931362    -8521.920404    -8521.920405  0.051008 -2.897997  0.035732
   scf:    4    -8521.920517    -8521.920495    -8521.920495  0.001067 -2.898194  0.014839
   scf:    5    -8521.920520    -8521.920513    -8521.920513  0.000453 -2.898286  0.014465
   scf:    6    -8521.920538    -8521.920530    -8521.920530  0.000253 -2.898113  0.008026
   scf:    7    -8521.920543    -8521.920543    -8521.920543  0.000906 -2.897128  0.011206
   scf:    8    -8521.920544    -8521.920544    -8521.920544  0.000025 -2.897114  0.010258
   scf:    9    -8521.920549    -8521.920548    -8521.920549  0.000218 -2.896911  0.001694
   scf:   10    -8521.920548    -8521.920548    -8521.920549  0.000011 -2.896883  0.001537
   scf:   11    -8521.920549    -8521.920549    -8521.920549  0.000040 -2.896788  0.001450
   scf:   12    -8521.920549    -8521.920549    -8521.920549  0.000056 -2.896637  0.000981

SCF Convergence by DM+H criterion
max |DM_out - DM_in|         :     0.0000559971
max |H_out - H_in|      (eV) :     0.0009805359
SCF cycle converged after 12 iterations

Using DM_out to compute the final energy and forces
No. of atoms with KB's overlaping orbs in proc 0. Max # of overlaps:       9      59

siesta: E_KS(eV) =            -8521.9205

siesta: Atomic forces (eV/Ang):
----------------------------------------
   Tot   -0.002032   -0.024152    0.011660
----------------------------------------
   Max    3.277305
   Res    1.391079    sqrt( Sum f_i^2 / 3N )
----------------------------------------
   Max    3.277305    constrained

Stress tensor Voigt[x,y,z,yz,xz,xy] (kbar):        0.50        0.65        0.13       -0.41       -0.35       -0.20
(Free)E + p*V (eV/cell)    -8524.0438
Target enthalpy (eV/cell)    -8521.9205

siesta: Stress tensor (static) (eV/Ang**3):
         0.000321   -0.000138   -0.000226
        -0.000138    0.000430   -0.000249
        -0.000226   -0.000249    0.000117

siesta: Pressure (static):         -0.46326834  kBar

siesta: Stress tensor (total) (eV/Ang**3):
         0.000310   -0.000125   -0.000220
        -0.000125    0.000407   -0.000259
        -0.000220   -0.000259    0.000079

siesta: Pressure (total):         -0.42522535  kBar

siesta: Temp_ion =     281.477 K

                     ====================================
                        Begin MD step =      4
                     ====================================

outcell: Unit cell vectors (Ang):
       20.000000    0.000000    0.000000
        0.000000   20.000000    0.000000
        0.000000    0.000000   20.000000

outcell: Cell vector modules (Ang)   :   20.000000   20.000000   20.000000
outcell: Cell angles (23,13,12) (deg):     90.0000     90.0000     90.0000
outcell: Cell volume (Ang**3)        :   8000.0000
<dSpData1D:S at geom step 4
  <sparsity:sparsity for geom step 4
    nrows_g=79 nrows=79 sparsity=.6789 nnzs=4237, refcount: 7>
  <dData1D:(new from dSpData1D) n=4237, refcount: 1>
refcount: 1>
new_DM -- step:     4
Re-using DM from previous geometries...
Number of DMs in history: 1
 DM extrapolation coefficients: 
1   1.00000
New DM after history re-use:
<dSpData2D:SpM extrapolated using coords
  <sparsity:sparsity for geom step 4
    nrows_g=79 nrows=79 sparsity=.6789 nnzs=4237, refcount: 9>
  <dData2D:(temp array for extrapolation) n=4237 m=1, refcount: 1>
refcount: 1>
No. of atoms with KB's overlaping orbs in proc 0. Max # of overlaps:       9      59

InitMesh: MESH = 180 x 180 x 180 = 5832000
InitMesh: Mesh cutoff (required, used) =   200.000   223.865 Ry
New grid distribution [1]: sub = 2

        iscf     Eharris(eV)        E_KS(eV)     FreeEng(eV)     dDmax    Ef(eV) dHmax(eV)
   scf:    1    -8521.914924    -8521.949828    -8521.949829  0.006828 -2.878676  0.186126
   scf:    2    -8521.082476    -8521.667395    -8521.667396  0.061860 -2.884640  2.067792
   scf:    3    -8521.966187    -8521.951238    -8521.951238  0.058676 -2.879832  0.061009
   scf:    4    -8521.951450    -8521.951437    -8521.951437  0.001670 -2.882135  0.033408
   scf:    5    -8521.951421    -8521.951476    -8521.951476  0.001293 -2.884169  0.028518
   scf:    6    -8521.951520    -8521.951518    -8521.951518  0.000509 -2.885217  0.015807
   scf:    7    -8521.951547    -8521.951539    -8521.951540  0.000537 -2.888304  0.013339
   scf:    8    -8521.951544    -8521.951542    -8521.951542  0.000074 -2.888471  0.010412
   scf:    9    -8521.951546    -8521.951546    -8521.951546  0.000224 -2.889773  0.009298
   scf:   10    -8521.951546    -8521.951546    -8521.951547  0.000131 -2.890644  0.005394
   scf:   11    -8521.951546    -8521.951546    -8521.951547  0.000026 -2.890947  0.004226
   scf:   12    -8521.951547    -8521.951547    -8521.951548  0.000118 -2.892091  0.002101
   scf:   13    -8521.951547    -8521.951547    -8521.951548  0.000056 -2.892038  0.000903

SCF Convergence by DM+H criterion
max |DM_out - DM_in|         :     0.0000561216
max |H_out - H_in|      (eV) :     0.0009034939
SCF cycle converged after 13 iterations

Using DM_out to compute the final energy and forces
No. of atoms with KB's overlaping orbs in proc 0. Max # of overlaps:       9      59

siesta: E_KS(eV) =            -8521.9515

siesta: Atomic forces (eV/Ang):
----------------------------------------
   Tot    0.002198   -0.030225    0.002957
----------------------------------------
   Max    2.906376
   Res    1.324033    sqrt( Sum f_i^2 / 3N )
----------------------------------------
   Max    2.906376    constrained

Stress tensor Voigt[x,y,z,yz,xz,xy] (kbar):        0.52        0.65        0.10       -0.42       -0.35       -0.21
(Free)E + p*V (eV/cell)    -8524.0854
Target enthalpy (eV/cell)    -8521.9515

siesta: Stress tensor (static) (eV/Ang**3):
         0.000340   -0.000145   -0.000225
        -0.000145    0.000430   -0.000257
        -0.000225   -0.000257    0.000103

siesta: Pressure (static):         -0.46620546  kBar

siesta: Stress tensor (total) (eV/Ang**3):
         0.000327   -0.000131   -0.000217
        -0.000131    0.000407   -0.000265
        -0.000217   -0.000265    0.000065

siesta: Pressure (total):         -0.42734340  kBar

siesta: Temp_ion =     320.769 K

                     ====================================
                        Begin MD step =      5
                     ====================================

outcell: Unit cell vectors (Ang):
       20.000000    0.000000    0.000000
        0.000000   20.000000    0.000000
        0.000000    0.000000   20.000000

outcell: Cell vector modules (Ang)   :   20.000000   20.000000   20.000000
outcell: Cell angles (23,13,12) (deg):     90.0000     90.0000     90.0000
outcell: Cell volume (Ang**3)        :   8000.0000
<dSpData1D:S at geom step 5
  <sparsity:sparsity for geom step 5
    nrows_g=79 nrows=79 sparsity=.6789 nnzs=4237, refcount: 7>
  <dData1D:(new from dSpData1D) n=4237, refcount: 1>
refcount: 1>
new_DM -- step:     5
Re-using DM from previous geometries...
Number of DMs in history: 1
 DM extrapolation coefficients: 
1   1.00000
New DM after history re-use:
<dSpData2D:SpM extrapolated using coords
  <sparsity:sparsity for geom step 5
    nrows_g=79 nrows=79 sparsity=.6789 nnzs=4237, refcount: 9>
  <dData2D:(temp array for extrapolation) n=4237 m=1, refcount: 1>
refcount: 1>
No. of atoms with KB's overlaping orbs in proc 0. Max # of overlaps:       9      59

InitMesh: MESH = 180 x 180 x 180 = 5832000
InitMesh: Mesh cutoff (required, used) =   200.000   223.865 Ry
New grid distribution [1]: sub = 2

        iscf     Eharris(eV)        E_KS(eV)     FreeEng(eV)     dDmax    Ef(eV) dHmax(eV)
   scf:    1    -8521.949652    -8521.997648    -8521.997648  0.013583 -2.858434  0.267861
   scf:    2    -8520.649826    -8521.558317    -8521.558319  0.077716 -2.878217  2.751148
   scf:    3    -8522.022384    -8521.999737    -8521.999737  0.073888 -2.861011  0.099387
   scf:    4    -8522.000103    -8522.000143    -8522.000144  0.002348 -2.866468  0.060248
   scf:    5    -8521.999858    -8522.000161    -8522.000161  0.002318 -2.870503  0.055863
   scf:    6    -8522.000306    -8522.000304    -8522.000305  0.001075 -2.872542  0.027157
   scf:    7    -8522.000355    -8522.000346    -8522.000346  0.000955 -2.879187  0.024248
   scf:    8    -8522.000355    -8522.000352    -8522.000352  0.000140 -2.879717  0.024065
   scf:    9    -8522.000344    -8522.000354    -8522.000354  0.000370 -2.883964  0.016584
   scf:   10    -8522.000356    -8522.000357    -8522.000357  0.000251 -2.886460  0.007937
   scf:   11    -8522.000359    -8522.000358    -8522.000358  0.000041 -2.886803  0.006224
   scf:   12    -8522.000361    -8522.000361    -8522.000361  0.000176 -2.887557  0.002378
   scf:   13    -8522.000361    -8522.000361    -8522.000361  0.000043 -2.887321  0.001764
   scf:   14    -8522.000361    -8522.000361    -8522.000361  0.000017 -2.887388  0.001122
   scf:   15    -8522.000361    -8522.000361    -8522.000361  0.000020 -2.887567  0.000837

SCF Convergence by DM+H criterion
max |DM_out - DM_in|         :     0.0000200992
max |H_out - H_in|      (eV) :     0.0008367142
SCF cycle converged after 15 iterations

Using DM_out to compute the final energy and forces
No. of atoms with KB's overlaping orbs in proc 0. Max # of overlaps:       9      59

siesta: E_KS(eV) =            -8522.0004

siesta: Atomic forces (eV/Ang):
----------------------------------------
   Tot   -0.005448   -0.027902   -0.002402
----------------------------------------
   Max    2.448490
   Res    1.210159    sqrt( Sum f_i^2 / 3N )
----------------------------------------
   Max    2.448490    constrained

Stress tensor Voigt[x,y,z,yz,xz,xy] (kbar):        0.61        0.68        0.08       -0.44       -0.34       -0.21
(Free)E + p*V (eV/cell)    -8524.2785
Target enthalpy (eV/cell)    -8522.0004

siesta: Stress tensor (static) (eV/Ang**3):
         0.000398   -0.000146   -0.000221
        -0.000146    0.000451   -0.000268
        -0.000221   -0.000268    0.000088

siesta: Pressure (static):         -0.50052859  kBar

siesta: Stress tensor (total) (eV/Ang**3):
         0.000379   -0.000130   -0.000212
        -0.000130    0.000425   -0.000273
        -0.000212   -0.000273    0.000051

siesta: Pressure (total):         -0.45624165  kBar

siesta: Temp_ion =     382.572 K

                     ====================================
                        Begin MD step =      6
                     ====================================

outcell: Unit cell vectors (Ang):
       20.000000    0.000000    0.000000
        0.000000   20.000000    0.000000
        0.000000    0.000000   20.000000

outcell: Cell vector modules (Ang)   :   20.000000   20.000000   20.000000
outcell: Cell angles (23,13,12) (deg):     90.0000     90.0000     90.0000
outcell: Cell volume (Ang**3)        :   8000.0000
<dSpData1D:S at geom step 6
  <sparsity:sparsity for geom step 6
    nrows_g=79 nrows=79 sparsity=.6789 nnzs=4237, refcount: 7>
  <dData1D:(new from dSpData1D) n=4237, refcount: 1>
refcount: 1>
new_DM -- step:     6
Re-using DM from previous geometries...
Number of DMs in history: 1
 DM extrapolation coefficients: 
1   1.00000
New DM after history re-use:
<dSpData2D:SpM extrapolated using coords
  <sparsity:sparsity for geom step 6
    nrows_g=79 nrows=79 sparsity=.6789 nnzs=4237, refcount: 9>
  <dData2D:(temp array for extrapolation) n=4237 m=1, refcount: 1>
refcount: 1>
No. of atoms with KB's overlaping orbs in proc 0. Max # of overlaps:       9      59

InitMesh: MESH = 180 x 180 x 180 = 5832000
InitMesh: Mesh cutoff (required, used) =   200.000   223.865 Ry
New grid distribution [1]: sub = 2

        iscf     Eharris(eV)        E_KS(eV)     FreeEng(eV)     dDmax    Ef(eV) dHmax(eV)
   scf:    1    -8521.976034    -8522.042346    -8522.042346  0.018525 -2.837911  0.348777
   scf:    2    -8519.936929    -8521.355219    -8521.355222  0.097876 -2.868806  3.570050
   scf:    3    -8522.079536    -8522.045329    -8522.045330  0.093313 -2.841725  0.138685
   scf:    4    -8522.045790    -8522.045971    -8522.045971  0.002866 -2.850810  0.090557
   scf:    5    -8522.045559    -8522.046015    -8522.046015  0.002822 -2.855672  0.081695
   scf:    6    -8522.046251    -8522.046228    -8522.046228  0.001129 -2.860178  0.044615
   scf:    7    -8522.046275    -8522.046288    -8522.046288  0.001406 -2.871945  0.041649
   scf:    8    -8522.046299    -8522.046295    -8522.046295  0.000151 -2.872873  0.040639
   scf:    9    -8522.046284    -8522.046302    -8522.046302  0.000522 -2.879492  0.019319
   scf:   10    -8522.046308    -8522.046305    -8522.046305  0.000069 -2.880312  0.015623
   scf:   11    -8522.046317    -8522.046316    -8522.046316  0.000330 -2.882397  0.007250
   scf:   12    -8522.046317    -8522.046317    -8522.046317  0.000021 -2.882393  0.006362
   scf:   13    -8522.046319    -8522.046318    -8522.046318  0.000146 -2.882009  0.001271
   scf:   14    -8522.046318    -8522.046318    -8522.046319  0.000006 -2.881998  0.001145
   scf:   15    -8522.046319    -8522.046318    -8522.046319  0.000027 -2.882021  0.000990

SCF Convergence by DM+H criterion
max |DM_out - DM_in|         :     0.0000274179
max |H_out - H_in|      (eV) :     0.0009897880
SCF cycle converged after 15 iterations

Using DM_out to compute the final energy and forces
No. of atoms with KB's overlaping orbs in proc 0. Max # of overlaps:       9      59

siesta: E_KS(eV) =            -8522.0463

siesta: Atomic forces (eV/Ang):
----------------------------------------
   Tot   -0.011729   -0.030147   -0.001265
----------------------------------------
   Max    2.510072
   Res    1.100230    sqrt( Sum f_i^2 / 3N )
----------------------------------------
   Max    2.510072    constrained

Stress tensor Voigt[x,y,z,yz,xz,xy] (kbar):        0.72        0.72        0.05       -0.45       -0.33       -0.20
(Free)E + p*V (eV/cell)    -8524.5349
Target enthalpy (eV/cell)    -8522.0463

siesta: Stress tensor (static) (eV/Ang**3):
         0.000478   -0.000141   -0.000217
        -0.000141    0.000482   -0.000279
        -0.000217   -0.000279    0.000072

siesta: Pressure (static):         -0.55121940  kBar

siesta: Stress tensor (total) (eV/Ang**3):
         0.000449   -0.000124   -0.000206
        -0.000124    0.000450   -0.000282
        -0.000206   -0.000282    0.000034

siesta: Pressure (total):         -0.49839960  kBar

siesta: Temp_ion =     449.439 K

                     ====================================
                        Begin MD step =      7
                     ====================================

outcell: Unit cell vectors (Ang):
       20.000000    0.000000    0.000000
        0.000000   20.000000    0.000000
        0.000000    0.000000   20.000000

outcell: Cell vector modules (Ang)   :   20.000000   20.000000   20.000000
outcell: Cell angles (23,13,12) (deg):     90.0000     90.0000     90.0000
outcell: Cell volume (Ang**3)        :   8000.0000
<dSpData1D:S at geom step 7
  <sparsity:sparsity for geom step 7
    nrows_g=79 nrows=79 sparsity=.6789 nnzs=4237, refcount: 7>
  <dData1D:(new from dSpData1D) n=4237, refcount: 1>
refcount: 1>
new_DM -- step:     7
Re-using DM from previous geometries...
Number of DMs in history: 1
 DM extrapolation coefficients: 
1   1.00000
New DM after history re-use:
<dSpData2D:SpM extrapolated using coords
  <sparsity:sparsity for geom step 7
    nrows_g=79 nrows=79 sparsity=.6789 nnzs=4237, refcount: 9>
  <dData2D:(temp array for extrapolation) n=4237 m=1, refcount: 1>
refcount: 1>
No. of atoms with KB's overlaping orbs in proc 0. Max # of overlaps:       9      59

InitMesh: MESH = 180 x 180 x 180 = 5832000
InitMesh: Mesh cutoff (required, used) =   200.000   223.865 Ry
New grid distribution [1]: sub = 2

        iscf     Eharris(eV)        E_KS(eV)     FreeEng(eV)     dDmax    Ef(eV) dHmax(eV)
   scf:    1    -8521.979208    -8522.067196    -8522.067196  0.021142 -2.818615  0.413617
   scf:    2    -8519.549592    -8521.245870    -8521.245873  0.105644 -2.863276  3.915763
   scf:    3    -8522.112902    -8522.070947    -8522.070947  0.100709 -2.823845  0.168381
   scf:    4    -8522.071435    -8522.071776    -8522.071776  0.003162 -2.836108  0.110141
   scf:    5    -8522.071408    -8522.071860    -8522.071860  0.002891 -2.841653  0.096639
   scf:    6    -8522.072102    -8522.072065    -8522.072065  0.001173 -2.849489  0.068414
   scf:    7    -8522.072084    -8522.072147    -8522.072147  0.001777 -2.867768  0.055770
   scf:    8    -8522.072162    -8522.072156    -8522.072156  0.000166 -2.868731  0.052933
   scf:    9    -8522.072178    -8522.072188    -8522.072188  0.000575 -2.874558  0.019813
   scf:   10    -8522.072198    -8522.072194    -8522.072194  0.000094 -2.874978  0.015628
   scf:   11    -8522.072208    -8522.072207    -8522.072207  0.000390 -2.875749  0.006640
   scf:   12    -8522.072208    -8522.072208    -8522.072208  0.000029 -2.875814  0.005589
   scf:   13    -8522.072210    -8522.072210    -8522.072210  0.000156 -2.876551  0.002188
   scf:   14    -8522.072210    -8522.072210    -8522.072210  0.000008 -2.876543  0.002148
   scf:   15    -8522.072210    -8522.072210    -8522.072210  0.000044 -2.876245  0.002003
   scf:   16    -8522.072210    -8522.072210    -8522.072210  0.000039 -2.875940  0.001023
   scf:   17    -8522.072210    -8522.072210    -8522.072210  0.000014 -2.875903  0.000636

SCF Convergence by DM+H criterion
max |DM_out - DM_in|         :     0.0000143359
max |H_out - H_in|      (eV) :     0.0006363878
SCF cycle converged after 17 iterations

Using DM_out to compute the final energy and forces
No. of atoms with KB's overlaping orbs in proc 0. Max # of overlaps:       9      59

siesta: E_KS(eV) =            -8522.0722

siesta: Atomic forces (eV/Ang):
----------------------------------------
   Tot   -0.007860   -0.030232   -0.005411
----------------------------------------
   Max    2.563980
   Res    1.042298    sqrt( Sum f_i^2 / 3N )
----------------------------------------
   Max    2.563980    constrained

Stress tensor Voigt[x,y,z,yz,xz,xy] (kbar):        0.84        0.76        0.02       -0.47       -0.32       -0.18
(Free)E + p*V (eV/cell)    -8524.7858
Target enthalpy (eV/cell)    -8522.0722

siesta: Stress tensor (static) (eV/Ang**3):
         0.000563   -0.000132   -0.000212
        -0.000132    0.000517   -0.000291
        -0.000212   -0.000291    0.000054

siesta: Pressure (static):         -0.60550189  kBar

siesta: Stress tensor (total) (eV/Ang**3):
         0.000525   -0.000115   -0.000199
        -0.000115    0.000477   -0.000292
        -0.000199   -0.000292    0.000015

siesta: Pressure (total):         -0.54345013  kBar

siesta: Temp_ion =     506.336 K

                     ====================================
                        Begin MD step =      8
                     ====================================

outcell: Unit cell vectors (Ang):
       20.000000    0.000000    0.000000
        0.000000   20.000000    0.000000
        0.000000    0.000000   20.000000

outcell: Cell vector modules (Ang)   :   20.000000   20.000000   20.000000
outcell: Cell angles (23,13,12) (deg):     90.0000     90.0000     90.0000
outcell: Cell volume (Ang**3)        :   8000.0000
<dSpData1D:S at geom step 8
  <sparsity:sparsity for geom step 8
    nrows_g=79 nrows=79 sparsity=.6789 nnzs=4237, refcount: 7>
  <dData1D:(new from dSpData1D) n=4237, refcount: 1>
refcount: 1>
new_DM -- step:     8
Re-using DM from previous geometries...
Number of DMs in history: 1
 DM extrapolation coefficients: 
1   1.00000
New DM after history re-use:
<dSpData2D:SpM extrapolated using coords
  <sparsity:sparsity for geom step 8
    nrows_g=79 nrows=79 sparsity=.6789 nnzs=4237, refcount: 9>
  <dData2D:(temp array for extrapolation) n=4237 m=1, refcount: 1>
refcount: 1>
No. of atoms with KB's overlaping orbs in proc 0. Max # of overlaps:       9      59

InitMesh: MESH = 180 x 180 x 180 = 5832000
InitMesh: Mesh cutoff (required, used) =   200.000   223.865 Ry
New grid distribution [1]: sub = 2

        iscf     Eharris(eV)        E_KS(eV)     FreeEng(eV)     dDmax    Ef(eV) dHmax(eV)
   scf:    1    -8521.953613    -8522.064655    -8522.064655  0.021696 -2.802995  0.480901
   scf:    2    -8518.265626    -8520.823289    -8520.823294  0.132762 -2.847681  4.917326
   scf:    3    -8522.129434    -8522.069529    -8522.069530  0.126983 -2.808523  0.202316
   scf:    4    -8522.069778    -8522.070482    -8522.070482  0.003881 -2.823242  0.140796
   scf:    5    -8522.070637    -8522.070770    -8522.070770  0.002515 -2.827496  0.098901
   scf:    6    -8522.070730    -8522.070854    -8522.070854  0.001703 -2.840837  0.089674
   scf:    7    -8522.070903    -8522.070971    -8522.070971  0.001915 -2.864603  0.061253
   scf:    8    -8522.071015    -8522.070999    -8522.070999  0.000369 -2.864796  0.056451
   scf:    9    -8522.071063    -8522.071059    -8522.071059  0.000808 -2.868276  0.019325
   scf:   10    -8522.071070    -8522.071064    -8522.071065  0.000105 -2.868425  0.015362
   scf:   11    -8522.071080    -8522.071078    -8522.071078  0.000386 -2.868112  0.006989
   scf:   12    -8522.071081    -8522.071080    -8522.071080  0.000090 -2.868605  0.004171
   scf:   13    -8522.071081    -8522.071080    -8522.071080  0.000041 -2.868922  0.003213
   scf:   14    -8522.071082    -8522.071081    -8522.071081  0.000072 -2.869008  0.001955
   scf:   15    -8522.071082    -8522.071081    -8522.071082  0.000014 -2.868851  0.001470
   scf:   16    -8522.071082    -8522.071082    -8522.071082  0.000047 -2.868621  0.000854

SCF Convergence by DM+H criterion
max |DM_out - DM_in|         :     0.0000465368
max |H_out - H_in|      (eV) :     0.0008540594
SCF cycle converged after 16 iterations

Using DM_out to compute the final energy and forces
No. of atoms with KB's overlaping orbs in proc 0. Max # of overlaps:       9      59

siesta: E_KS(eV) =            -8522.0711

siesta: Atomic forces (eV/Ang):
----------------------------------------
   Tot   -0.012550   -0.028062   -0.007452
----------------------------------------
   Max    2.608209
   Res    1.051612    sqrt( Sum f_i^2 / 3N )
----------------------------------------
   Max    2.608209    constrained

Stress tensor Voigt[x,y,z,yz,xz,xy] (kbar):        0.95        0.80       -0.01       -0.49       -0.30       -0.16
(Free)E + p*V (eV/cell)    -8524.9645
Target enthalpy (eV/cell)    -8522.0711

siesta: Stress tensor (static) (eV/Ang**3):
         0.000636   -0.000120   -0.000206
        -0.000120    0.000545   -0.000305
        -0.000206   -0.000304    0.000035

siesta: Pressure (static):         -0.64937738  kBar

siesta: Stress tensor (total) (eV/Ang**3):
         0.000592   -0.000102   -0.000190
        -0.000102    0.000499   -0.000304
        -0.000190   -0.000304   -0.000006

siesta: Pressure (total):         -0.57947013  kBar

siesta: Temp_ion =     546.852 K

                     ====================================
                        Begin MD step =      9
                     ====================================

outcell: Unit cell vectors (Ang):
       20.000000    0.000000    0.000000
        0.000000   20.000000    0.000000
        0.000000    0.000000   20.000000

outcell: Cell vector modules (Ang)   :   20.000000   20.000000   20.000000
outcell: Cell angles (23,13,12) (deg):     90.0000     90.0000     90.0000
outcell: Cell volume (Ang**3)        :   8000.0000
<dSpData1D:S at geom step 9
  <sparsity:sparsity for geom step 9
    nrows_g=79 nrows=79 sparsity=.6789 nnzs=4237, refcount: 7>
  <dData1D:(new from dSpData1D) n=4237, refcount: 1>
refcount: 1>
new_DM -- step:     9
Re-using DM from previous geometries...
Number of DMs in history: 1
 DM extrapolation coefficients: 
1   1.00000
New DM after history re-use:
<dSpData2D:SpM extrapolated using coords
  <sparsity:sparsity for geom step 9
    nrows_g=79 nrows=79 sparsity=.6789 nnzs=4237, refcount: 9>
  <dData2D:(temp array for extrapolation) n=4237 m=1, refcount: 1>
refcount: 1>
No. of atoms with KB's overlaping orbs in proc 0. Max # of overlaps:       9      59

InitMesh: MESH = 180 x 180 x 180 = 5832000
InitMesh: Mesh cutoff (required, used) =   200.000   223.865 Ry
New grid distribution [1]: sub = 2

        iscf     Eharris(eV)        E_KS(eV)     FreeEng(eV)     dDmax    Ef(eV) dHmax(eV)
   scf:    1    -8521.909384    -8522.039542    -8522.039542  0.020268 -2.792132  0.521096
   scf:    2    -8516.741823    -8520.305986    -8520.305993  0.159773 -2.828613  5.904068
   scf:    3    -8522.124782    -8522.045364    -8522.045365  0.153263 -2.797293  0.222416
   scf:    4    -8522.045101    -8522.046255    -8522.046255  0.004412 -2.813166  0.167791
   scf:    5    -8522.046718    -8522.046722    -8522.046722  0.002606 -2.817117  0.094112
   scf:    6    -8522.046588    -8522.046796    -8522.046796  0.001993 -2.833242  0.095608
   scf:    7    -8522.046789    -8522.046874    -8522.046874  0.001789 -2.860482  0.054776
   scf:    8    -8522.046996    -8522.046959    -8522.046959  0.000726 -2.859371  0.049461
   scf:    9    -8522.047037    -8522.047025    -8522.047025  0.000780 -2.860780  0.017752
   scf:   10    -8522.047034    -8522.047030    -8522.047030  0.000097 -2.860767  0.014353
   scf:   11    -8522.047043    -8522.047041    -8522.047041  0.000352 -2.860366  0.006100
   scf:   12    -8522.047046    -8522.047044    -8522.047044  0.000115 -2.859998  0.002619
   scf:   13    -8522.047045    -8522.047045    -8522.047045  0.000028 -2.859767  0.002312
   scf:   14    -8522.047045    -8522.047045    -8522.047045  0.000030 -2.859598  0.002368
   scf:   15    -8522.047045    -8522.047045    -8522.047045  0.000028 -2.860033  0.002014
   scf:   16    -8522.047045    -8522.047045    -8522.047045  0.000016 -2.860329  0.002075
   scf:   17    -8522.047046    -8522.047045    -8522.047045  0.000033 -2.860632  0.001105
   scf:   18    -8522.047045    -8522.047045    -8522.047046  0.000008 -2.860679  0.000961

SCF Convergence by DM+H criterion
max |DM_out - DM_in|         :     0.0000084510
max |H_out - H_in|      (eV) :     0.0009608378
SCF cycle converged after 18 iterations

Using DM_out to compute the final energy and forces
No. of atoms with KB's overlaping orbs in proc 0. Max # of overlaps:       9      59

siesta: E_KS(eV) =            -8522.0470

siesta: Atomic forces (eV/Ang):
----------------------------------------
   Tot   -0.011184   -0.028815   -0.005915
----------------------------------------
   Max    2.644289
   Res    1.103905    sqrt( Sum f_i^2 / 3N )
----------------------------------------
   Max    2.644289    constrained

Stress tensor Voigt[x,y,z,yz,xz,xy] (kbar):        1.03        0.82       -0.05       -0.51       -0.29       -0.14
(Free)E + p*V (eV/cell)    -8525.0342
Target enthalpy (eV/cell)    -8522.0470

siesta: Stress tensor (static) (eV/Ang**3):
         0.000688   -0.000107   -0.000198
        -0.000107    0.000561   -0.000317
        -0.000198   -0.000317    0.000013

siesta: Pressure (static):         -0.67375323  kBar

siesta: Stress tensor (total) (eV/Ang**3):
         0.000640   -0.000088   -0.000180
        -0.000088    0.000509   -0.000316
        -0.000180   -0.000316   -0.000029

siesta: Pressure (total):         -0.59825221  kBar

siesta: Temp_ion =     574.350 K

                     ====================================
                        Begin MD step =     10
                     ====================================

outcell: Unit cell vectors (Ang):
       20.000000    0.000000    0.000000
        0.000000   20.000000    0.000000
        0.000000    0.000000   20.000000

outcell: Cell vector modules (Ang)   :   20.000000   20.000000   20.000000
outcell: Cell angles (23,13,12) (deg):     90.0000     90.0000     90.0000
outcell: Cell volume (Ang**3)        :   8000.0000
<dSpData1D:S at geom step 10
  <sparsity:sparsity for geom step 10
    nrows_g=79 nrows=79 sparsity=.6789 nnzs=4237, refcount: 7>
  <dData1D:(new from dSpData1D) n=4237, refcount: 1>
refcount: 1>
new_DM -- step:    10
Re-using DM from previous geometries...
Number of DMs in history: 1
 DM extrapolation coefficients: 
1   1.00000
New DM after history re-use:
<dSpData2D:SpM extrapolated using coords
  <sparsity:sparsity for geom step 10
    nrows_g=79 nrows=79 sparsity=.6789 nnzs=4237, refcount: 9>
  <dData2D:(temp array for extrapolation) n=4237 m=1, refcount: 1>
refcount: 1>
No. of atoms with KB's overlaping orbs in proc 0. Max # of overlaps:       9      59

InitMesh: MESH = 180 x 180 x 180 = 5832000
InitMesh: Mesh cutoff (required, used) =   200.000   223.865 Ry
New grid distribution [1]: sub = 2

        iscf     Eharris(eV)        E_KS(eV)     FreeEng(eV)     dDmax    Ef(eV) dHmax(eV)
   scf:    1    -8521.859381    -8522.002471    -8522.002471  0.017537 -2.786918  0.544025
   scf:    2    -8514.669208    -8519.599703    -8519.599716  0.194546 -2.804622  7.037097
   scf:    3    -8522.112784    -8522.009353    -8522.009353  0.187117 -2.791080  0.230609
   scf:    4    -8522.008129    -8522.009956    -8522.009956  0.005057 -2.806309  0.195212
   scf:    5    -8522.010916    -8522.010716    -8522.010716  0.002824 -2.809813  0.084399
   scf:    6    -8522.010531    -8522.010801    -8522.010801  0.002187 -2.825757  0.093334
   scf:    7    -8522.010677    -8522.010816    -8522.010816  0.001587 -2.853192  0.059153
   scf:    8    -8522.011024    -8522.010969    -8522.010969  0.001058 -2.851391  0.039133
   scf:    9    -8522.011037    -8522.011024    -8522.011024  0.000643 -2.852085  0.016116
   scf:   10    -8522.011032    -8522.011028    -8522.011028  0.000081 -2.852045  0.013322
   scf:   11    -8522.011039    -8522.011038    -8522.011038  0.000315 -2.851537  0.006221
   scf:   12    -8522.011040    -8522.011039    -8522.011039  0.000072 -2.851217  0.004306
   scf:   13    -8522.011042    -8522.011041    -8522.011041  0.000071 -2.850493  0.003376
   scf:   14    -8522.011041    -8522.011041    -8522.011041  0.000013 -2.850419  0.003361
   scf:   15    -8522.011042    -8522.011042    -8522.011042  0.000087 -2.851115  0.002908
   scf:   16    -8522.011042    -8522.011042    -8522.011042  0.000022 -2.851324  0.002468
   scf:   17    -8522.011042    -8522.011042    -8522.011042  0.000039 -2.851643  0.001946
   scf:   18    -8522.011042    -8522.011042    -8522.011042  0.000007 -2.851689  0.001829
   scf:   19    -8522.011042    -8522.011042    -8522.011042  0.000053 -2.851893  0.000589

SCF Convergence by DM+H criterion
max |DM_out - DM_in|         :     0.0000529837
max |H_out - H_in|      (eV) :     0.0005893547
SCF cycle converged after 19 iterations

Using DM_out to compute the final energy and forces
No. of atoms with KB's overlaping orbs in proc 0. Max # of overlaps:       9      59

siesta: E_KS(eV) =            -8522.0110

siesta: Atomic forces (eV/Ang):
----------------------------------------
   Tot   -0.008750   -0.031942   -0.008273
----------------------------------------
   Max    2.668243
   Res    1.169784    sqrt( Sum f_i^2 / 3N )
----------------------------------------
   Max    2.668243    constrained

Stress tensor Voigt[x,y,z,yz,xz,xy] (kbar):        1.07        0.81       -0.09       -0.53       -0.27       -0.12
(Free)E + p*V (eV/cell)    -8524.9961
Target enthalpy (eV/cell)    -8522.0110

siesta: Stress tensor (static) (eV/Ang**3):
         0.000715   -0.000094   -0.000188
        -0.000094    0.000562   -0.000327
        -0.000188   -0.000327   -0.000010

siesta: Pressure (static):         -0.67712053  kBar

siesta: Stress tensor (total) (eV/Ang**3):
         0.000666   -0.000073   -0.000167
        -0.000073    0.000507   -0.000328
        -0.000167   -0.000328   -0.000054

siesta: Pressure (total):         -0.59782289  kBar

siesta: Temp_ion =     599.059 K

                     ====================================
                        Begin MD step =     11
                     ====================================

outcell: Unit cell vectors (Ang):
       20.000000    0.000000    0.000000
        0.000000   20.000000    0.000000
        0.000000    0.000000   20.000000

outcell: Cell vector modules (Ang)   :   20.000000   20.000000   20.000000
outcell: Cell angles (23,13,12) (deg):     90.0000     90.0000     90.0000
outcell: Cell volume (Ang**3)        :   8000.0000
<dSpData1D:S at geom step 11
  <sparsity:sparsity for geom step 11
    nrows_g=79 nrows=79 sparsity=.6789 nnzs=4237, refcount: 7>
  <dData1D:(new from dSpData1D) n=4237, refcount: 1>
refcount: 1>
new_DM -- step:    11
Re-using DM from previous geometries...
Number of DMs in history: 1
 DM extrapolation coefficients: 
1   1.00000
New DM after history re-use:
<dSpData2D:SpM extrapolated using coords
  <sparsity:sparsity for geom step 11
    nrows_g=79 nrows=79 sparsity=.6789 nnzs=4237, refcount: 9>
  <dData2D:(temp array for extrapolation) n=4237 m=1, refcount: 1>
refcount: 1>
No. of atoms with KB's overlaping orbs in proc 0. Max # of overlaps:       9      59

InitMesh: MESH = 180 x 180 x 180 = 5832000
InitMesh: Mesh cutoff (required, used) =   200.000   223.865 Ry
New grid distribution [1]: sub = 2

        iscf     Eharris(eV)        E_KS(eV)     FreeEng(eV)     dDmax    Ef(eV) dHmax(eV)
   scf:    1    -8521.816056    -8521.966028    -8521.966028  0.013746 -2.786742  0.561322
   scf:    2    -8511.212975    -8518.438733    -8518.438759  0.242595 -2.771391  8.624073
   scf:    3    -8522.117242    -8521.974668    -8521.974668  0.233967 -2.789311  0.228611
   scf:    4    -8521.972234    -8521.974833    -8521.974833  0.005443 -2.801852  0.221018
   scf:    5    -8521.976291    -8521.976002    -8521.976002  0.003499 -2.805695  0.077780
   scf:    6    -8521.975988    -8521.976120    -8521.976121  0.001979 -2.818240  0.073316
   scf:    7    -8521.975593    -8521.975973    -8521.975973  0.002304 -2.843860  0.075740
   scf:    8    -8521.976302    -8521.976233    -8521.976233  0.001487 -2.841611  0.027862
   scf:    9    -8521.976282    -8521.976272    -8521.976273  0.000564 -2.842303  0.013047
   scf:   10    -8521.976278    -8521.976275    -8521.976275  0.000066 -2.842303  0.010929
   scf:   11    -8521.976283    -8521.976282    -8521.976282  0.000253 -2.841828  0.006997
   scf:   12    -8521.976284    -8521.976283    -8521.976283  0.000090 -2.841564  0.005139
   scf:   13    -8521.976286    -8521.976286    -8521.976286  0.000128 -2.841279  0.002502
   scf:   14    -8521.976286    -8521.976286    -8521.976286  0.000010 -2.841260  0.002414
   scf:   15    -8521.976286    -8521.976286    -8521.976286  0.000046 -2.841278  0.001921
   scf:   16    -8521.976286    -8521.976286    -8521.976286  0.000009 -2.841349  0.001744
   scf:   17    -8521.976286    -8521.976286    -8521.976286  0.000072 -2.841865  0.001059
   scf:   18    -8521.976286    -8521.976286    -8521.976286  0.000010 -2.841954  0.001043
   scf:   19    -8521.976286    -8521.976286    -8521.976286  0.000018 -2.842161  0.000744

SCF Convergence by DM+H criterion
max |DM_out - DM_in|         :     0.0000183950
max |H_out - H_in|      (eV) :     0.0007441662
SCF cycle converged after 19 iterations

Using DM_out to compute the final energy and forces
No. of atoms with KB's overlaping orbs in proc 0. Max # of overlaps:       9      59

siesta: E_KS(eV) =            -8521.9763

siesta: Atomic forces (eV/Ang):
----------------------------------------
   Tot   -0.004456   -0.031289   -0.008188
----------------------------------------
   Max    2.682968
   Res    1.225986    sqrt( Sum f_i^2 / 3N )
----------------------------------------
   Max    2.682968    constrained

Stress tensor Voigt[x,y,z,yz,xz,xy] (kbar):        1.06        0.78       -0.13       -0.54       -0.24       -0.09
(Free)E + p*V (eV/cell)    -8524.8193
Target enthalpy (eV/cell)    -8521.9763

siesta: Stress tensor (static) (eV/Ang**3):
         0.000711   -0.000080   -0.000176
        -0.000080    0.000546   -0.000336
        -0.000176   -0.000336   -0.000036

siesta: Pressure (static):         -0.65208585  kBar

siesta: Stress tensor (total) (eV/Ang**3):
         0.000660   -0.000056   -0.000152
        -0.000056    0.000488   -0.000339
        -0.000152   -0.000339   -0.000082

siesta: Pressure (total):         -0.56937676  kBar

siesta: Temp_ion =     634.587 K

                     ====================================
                        Begin MD step =     12
                     ====================================

outcell: Unit cell vectors (Ang):
       20.000000    0.000000    0.000000
        0.000000   20.000000    0.000000
        0.000000    0.000000   20.000000

outcell: Cell vector modules (Ang)   :   20.000000   20.000000   20.000000
outcell: Cell angles (23,13,12) (deg):     90.0000     90.0000     90.0000
outcell: Cell volume (Ang**3)        :   8000.0000
<dSpData1D:S at geom step 12
  <sparsity:sparsity for geom step 12
    nrows_g=79 nrows=79 sparsity=.6789 nnzs=4237, refcount: 7>
  <dData1D:(new from dSpData1D) n=4237, refcount: 1>
refcount: 1>
new_DM -- step:    12
Re-using DM from previous geometries...
Number of DMs in history: 1
 DM extrapolation coefficients: 
1   1.00000
New DM after history re-use:
<dSpData2D:SpM extrapolated using coords
  <sparsity:sparsity for geom step 12
    nrows_g=79 nrows=79 sparsity=.6789 nnzs=4237, refcount: 9>
  <dData2D:(temp array for extrapolation) n=4237 m=1, refcount: 1>
refcount: 1>
No. of atoms with KB's overlaping orbs in proc 0. Max # of overlaps:       9      59

InitMesh: MESH = 180 x 180 x 180 = 5832000
InitMesh: Mesh cutoff (required, used) =   200.000   223.865 Ry
New grid distribution [1]: sub = 2

        iscf     Eharris(eV)        E_KS(eV)     FreeEng(eV)     dDmax    Ef(eV) dHmax(eV)
   scf:    1    -8521.793134    -8521.943211    -8521.943211  0.011401 -2.790717  0.558723
   scf:    2    -8507.603633    -8517.236384    -8517.236430  0.287662 -2.737278 10.027229
   scf:    3    -8522.135766    -8521.953654    -8521.953654  0.277881 -2.791463  0.211460
   scf:    4    -8521.950784    -8521.953543    -8521.953543  0.005241 -2.799846  0.220748
   scf:    5    -8521.955160    -8521.954881    -8521.954881  0.003832 -2.803905  0.065434
   scf:    6    -8521.954915    -8521.954980    -8521.954980  0.001708 -2.812217  0.050835
   scf:    7    -8521.954347    -8521.954792    -8521.954792  0.002403 -2.831677  0.071240
   scf:    8    -8521.955114    -8521.955054    -8521.955054  0.001467 -2.830470  0.022265
   scf:    9    -8521.955086    -8521.955080    -8521.955080  0.000440 -2.831522  0.009114
   scf:   10    -8521.955083    -8521.955082    -8521.955082  0.000062 -2.831578  0.007779
   scf:   11    -8521.955087    -8521.955086    -8521.955086  0.000202 -2.831329  0.005325
   scf:   12    -8521.955088    -8521.955087    -8521.955087  0.000081 -2.831190  0.004248
   scf:   13    -8521.955088    -8521.955088    -8521.955088  0.000039 -2.831995  0.002862
   scf:   14    -8521.955088    -8521.955088    -8521.955088  0.000010 -2.832069  0.002714
   scf:   15    -8521.955090    -8521.955089    -8521.955089  0.000099 -2.831596  0.000893

SCF Convergence by DM+H criterion
max |DM_out - DM_in|         :     0.0000989380
max |H_out - H_in|      (eV) :     0.0008930748
SCF cycle converged after 15 iterations

Using DM_out to compute the final energy and forces
No. of atoms with KB's overlaping orbs in proc 0. Max # of overlaps:       9      59

siesta: E_KS(eV) =            -8521.9551

siesta: Atomic forces (eV/Ang):
----------------------------------------
   Tot   -0.000474   -0.039615   -0.006027
----------------------------------------
   Max    2.681266
   Res    1.259844    sqrt( Sum f_i^2 / 3N )
----------------------------------------
   Max    2.681266    constrained

Stress tensor Voigt[x,y,z,yz,xz,xy] (kbar):        1.00        0.73       -0.18       -0.56       -0.22       -0.06
(Free)E + p*V (eV/cell)    -8524.5237
Target enthalpy (eV/cell)    -8521.9551

siesta: Stress tensor (static) (eV/Ang**3):
         0.000678   -0.000066   -0.000162
        -0.000066    0.000513   -0.000342
        -0.000162   -0.000342   -0.000063

siesta: Pressure (static):         -0.60203487  kBar

siesta: Stress tensor (total) (eV/Ang**3):
         0.000623   -0.000039   -0.000135
        -0.000039    0.000453   -0.000348
        -0.000135   -0.000348   -0.000113

siesta: Pressure (total):         -0.51442064  kBar

siesta: Temp_ion =     695.535 K

                     ====================================
                        Begin MD step =     13
                     ====================================

outcell: Unit cell vectors (Ang):
       20.000000    0.000000    0.000000
        0.000000   20.000000    0.000000
        0.000000    0.000000   20.000000

outcell: Cell vector modules (Ang)   :   20.000000   20.000000   20.000000
outcell: Cell angles (23,13,12) (deg):     90.0000     90.0000     90.0000
outcell: Cell volume (Ang**3)        :   8000.0000
<dSpData1D:S at geom step 13
  <sparsity:sparsity for geom step 13
    nrows_g=79 nrows=79 sparsity=.6789 nnzs=4237, refcount: 7>
  <dData1D:(new from dSpData1D) n=4237, refcount: 1>
refcount: 1>
new_DM -- step:    13
[...]
        -0.001089    0.001285    0.000299
         0.001285   -0.000816    0.000006
         0.000299    0.000006   -0.000933

siesta: Pressure (total):          1.51565548  kBar

siesta: Temp_ion =   16173.564 K

                     ====================================
                        Begin MD step =     49
                     ====================================

outcell: Unit cell vectors (Ang):
       20.000000    0.000000    0.000000
        0.000000   20.000000    0.000000
        0.000000    0.000000   20.000000

outcell: Cell vector modules (Ang)   :   20.000000   20.000000   20.000000
outcell: Cell angles (23,13,12) (deg):     90.0000     90.0000     90.0000
outcell: Cell volume (Ang**3)        :   8000.0000
<dSpData1D:S at geom step 49
  <sparsity:sparsity for geom step 49
    nrows_g=79 nrows=79 sparsity=.7548 nnzs=4711, refcount: 7>
  <dData1D:(new from dSpData1D) n=4711, refcount: 1>
refcount: 1>
new_DM -- step:    49
Re-using DM from previous geometries...
Number of DMs in history: 1
 DM extrapolation coefficients: 
1   1.00000
New DM after history re-use:
<dSpData2D:SpM extrapolated using coords
  <sparsity:sparsity for geom step 49
    nrows_g=79 nrows=79 sparsity=.7548 nnzs=4711, refcount: 9>
  <dData2D:(temp array for extrapolation) n=4711 m=1, refcount: 1>
refcount: 1>
No. of atoms with KB's overlaping orbs in proc 0. Max # of overlaps:       9      58

InitMesh: MESH = 180 x 180 x 180 = 5832000
InitMesh: Mesh cutoff (required, used) =   200.000   223.865 Ry
New grid distribution [1]: sub = 2

        iscf     Eharris(eV)        E_KS(eV)     FreeEng(eV)     dDmax    Ef(eV) dHmax(eV)
   scf:    1    -8496.904940    -8508.073854    -8508.124556  0.641421 -3.803618  9.964774
   scf:    2    -7824.752412    -8294.943516    -8294.946419  1.435213 -2.716527 66.000016
   scf:    3    -8554.777676    -8504.187350    -8504.246704  1.410120 -3.718726 16.488060
   scf:    4    -8510.183082    -8507.472488    -8507.520648  0.089157 -3.760964 13.677348
   scf:    5    -8508.367709    -8507.926772    -8507.976957  0.026171 -3.766501 13.135702
   scf:    6    -8512.122334    -8510.163097    -8510.213248  0.104347 -3.790718 10.284342
   scf:    7    -8510.269647    -8511.512477    -8511.560120  0.271668 -3.804988  4.493830
   scf:    8    -8471.926654    -8501.596894    -8501.608932  1.092373 -3.774029 17.644513
   scf:    9    -8492.822286    -8497.417795    -8497.426666  0.101255 -3.758327 20.838264
   scf:   10    -8492.797703    -8495.355279    -8495.358266  0.061650 -3.754968 21.748650
   scf:   11    -8501.519205    -8500.907057    -8500.945647  0.314225 -3.751886 17.435788
   scf:   12    -8497.818291    -8505.726801    -8505.750571  0.790468 -3.728800 13.284482
   scf:   13    -8512.109747    -8513.240091    -8513.301938  0.488106 -3.828554  2.179789
   scf:   14    -8497.266984    -8507.324184    -8507.358435  0.559563 -3.807302 12.534888
   scf:   15    -8504.531134    -8507.430214    -8507.457925  0.331971 -3.759573 10.171463
   scf:   16    -8511.378933    -8512.466112    -8512.528818  0.340150 -3.785694  6.074980
   scf:   17    -8511.707132    -8512.712180    -8512.773655  0.202794 -3.769779  4.529611
   scf:   18    -8512.222724    -8513.423166    -8513.479238  0.191993 -3.752009  2.246749
   scf:   19    -8512.453598    -8513.485593    -8513.553078  0.157933 -3.757524  2.237744
   scf:   20    -8513.490456    -8513.704671    -8513.768402  0.121899 -3.734272  1.015176
   scf:   21    -8513.577205    -8513.664733    -8513.725568  0.036812 -3.738909  1.299367
   scf:   22    -8513.621203    -8513.720769    -8513.781958  0.070942 -3.732793  0.993841
   scf:   23    -8513.763158    -8513.752774    -8513.815620  0.038069 -3.732527  0.240645
   scf:   24    -8513.669471    -8513.729510    -8513.794888  0.050662 -3.727984  0.747768
   scf:   25    -8513.730561    -8513.752026    -8513.816248  0.058530 -3.724961  0.294450
   scf:   26    -8513.748452    -8513.753623    -8513.818967  0.020995 -3.724900  0.121666
   scf:   27    -8513.754390    -8513.754590    -8513.819615  0.009613 -3.724996  0.048797
   scf:   28    -8513.754546    -8513.754581    -8513.819756  0.001259 -3.725525  0.029851
   scf:   29    -8513.754395    -8513.754506    -8513.819853  0.001552 -3.725928  0.016150
   scf:   30    -8513.754157    -8513.754347    -8513.819875  0.002769 -3.726204  0.008514
   scf:   31    -8513.754692    -8513.754526    -8513.819902  0.001176 -3.727019  0.006395
   scf:   32    -8513.754538    -8513.754534    -8513.819907  0.000424 -3.727128  0.005115
   scf:   33    -8513.754689    -8513.754612    -8513.819917  0.000595 -3.727387  0.003755
   scf:   34    -8513.754707    -8513.754660    -8513.819923  0.000458 -3.727602  0.002843
   scf:   35    -8513.754722    -8513.754691    -8513.819924  0.000298 -3.727833  0.002531
   scf:   36    -8513.754715    -8513.754703    -8513.819926  0.000163 -3.727865  0.002453
   scf:   37    -8513.754709    -8513.754706    -8513.819928  0.000243 -3.727843  0.002512
   scf:   38    -8513.754670    -8513.754688    -8513.819929  0.000127 -3.727826  0.001921
   scf:   39    -8513.754700    -8513.754694    -8513.819929  0.000140 -3.727863  0.001534
   scf:   40    -8513.754703    -8513.754699    -8513.819929  0.000149 -3.727884  0.001132
   scf:   41    -8513.754707    -8513.754703    -8513.819930  0.000203 -3.727877  0.000536

SCF Convergence by DM+H criterion
max |DM_out - DM_in|         :     0.0002025720
max |H_out - H_in|      (eV) :     0.0005364134
SCF cycle converged after 41 iterations

Using DM_out to compute the final energy and forces
No. of atoms with KB's overlaping orbs in proc 0. Max # of overlaps:       9      58

siesta: E_KS(eV) =            -8513.7547

siesta: Atomic forces (eV/Ang):
----------------------------------------
   Tot   -0.022905    0.017302    0.002091
----------------------------------------
   Max    4.507650
   Res    1.876046    sqrt( Sum f_i^2 / 3N )
----------------------------------------
   Max    4.507650    constrained

Stress tensor Voigt[x,y,z,yz,xz,xy] (kbar):       -1.17       -0.39       -0.72       -0.10        0.23        1.58
(Free)E + p*V (eV/cell)    -8510.0163
Target enthalpy (eV/cell)    -8513.8199

siesta: Stress tensor (static) (eV/Ang**3):
         0.000315    0.000285   -0.000017
         0.000285    0.001128   -0.000080
        -0.000017   -0.000080    0.001312

siesta: Pressure (static):         -1.47123620  kBar

siesta: Stress tensor (total) (eV/Ang**3):
        -0.000732    0.000985    0.000145
         0.000985   -0.000245   -0.000063
         0.000145   -0.000063   -0.000449

siesta: Pressure (total):          0.76176536  kBar

siesta: Temp_ion =   12565.110 K

                     ====================================
                        Begin MD step =     50
                     ====================================

outcell: Unit cell vectors (Ang):
       20.000000    0.000000    0.000000
        0.000000   20.000000    0.000000
        0.000000    0.000000   20.000000

outcell: Cell vector modules (Ang)   :   20.000000   20.000000   20.000000
outcell: Cell angles (23,13,12) (deg):     90.0000     90.0000     90.0000
outcell: Cell volume (Ang**3)        :   8000.0000
<dSpData1D:S at geom step 50
  <sparsity:sparsity for geom step 50
    nrows_g=79 nrows=79 sparsity=.7548 nnzs=4711, refcount: 7>
  <dData1D:(new from dSpData1D) n=4711, refcount: 1>
refcount: 1>
new_DM -- step:    50
Re-using DM from previous geometries...
Number of DMs in history: 1
 DM extrapolation coefficients: 
1   1.00000
New DM after history re-use:
<dSpData2D:SpM extrapolated using coords
  <sparsity:sparsity for geom step 50
    nrows_g=79 nrows=79 sparsity=.7548 nnzs=4711, refcount: 9>
  <dData2D:(temp array for extrapolation) n=4711 m=1, refcount: 1>
refcount: 1>
No. of atoms with KB's overlaping orbs in proc 0. Max # of overlaps:       9      58

InitMesh: MESH = 180 x 180 x 180 = 5832000
InitMesh: Mesh cutoff (required, used) =   200.000   223.865 Ry
New grid distribution [1]: sub = 2

        iscf     Eharris(eV)        E_KS(eV)     FreeEng(eV)     dDmax    Ef(eV) dHmax(eV)
   scf:    1    -8498.111109    -8508.376416    -8508.428492  0.590977 -3.811731  9.297734
   scf:    2    -7718.482810    -8259.490245    -8259.491335  1.535159 -2.660071 71.233872
   scf:    3    -8566.455837    -8504.572046    -8504.634773  1.438642 -3.746375 15.288885
   scf:    4    -8511.798662    -8508.648223    -8508.695945  0.107613 -3.782785 11.937328
   scf:    5    -8509.343394    -8509.002637    -8509.051932  0.025472 -3.786799 11.412766
   scf:    6    -8511.951898    -8510.560342    -8510.609045  0.079555 -3.801855  9.236740
   scf:    7    -8511.645072    -8511.789877    -8511.838531  0.204502 -3.813701  4.525256
   scf:    8    -8470.972340    -8501.343406    -8501.355603  1.104758 -3.783752 17.678428
   scf:    9    -8499.861617    -8500.645835    -8500.658983  0.042040 -3.779972 18.408064
   scf:   10    -8500.601755    -8500.750969    -8500.760650  0.070617 -3.782812 17.887895
   scf:   11    -8512.136299    -8508.952849    -8509.011302  0.482095 -3.780375 10.111224
   scf:   12    -8503.881761    -8509.156902    -8509.190935  0.556649 -3.764333  9.270929
   scf:   13    -8510.364955    -8513.136616    -8513.209947  0.314139 -3.829390  2.681244
   scf:   14    -8512.339609    -8512.980084    -8513.042931  0.181362 -3.811402  4.075930
   scf:   15    -8512.541511    -8513.404209    -8513.472957  0.200067 -3.793586  1.826647
   scf:   16    -8507.628861    -8511.935437    -8512.006618  0.263663 -3.790753  4.779835
   scf:   17    -8509.370309    -8510.735929    -8510.805236  0.057032 -3.780098  6.079909
   scf:   18    -8512.710871    -8513.460795    -8513.530797  0.307505 -3.775370  1.150953
   scf:   19    -8513.012644    -8513.461033    -8513.530976  0.120462 -3.778396  1.605744
   scf:   20    -8513.625127    -8513.565514    -8513.635261  0.036145 -3.746331  0.623944
   scf:   21    -8513.584675    -8513.586364    -8513.656094  0.026286 -3.746228  0.109132
   scf:   22    -8513.557328    -8513.578005    -8513.646193  0.011204 -3.736919  0.419732
   scf:   23    -8513.586449    -8513.587043    -8513.656636  0.011196 -3.743801  0.059305
   scf:   24    -8513.587345    -8513.587239    -8513.656884  0.001874 -3.742458  0.041938
   scf:   25    -8513.587901    -8513.587634    -8513.657168  0.003078 -3.741179  0.012912
   scf:   26    -8513.587663    -8513.587649    -8513.657198  0.000637 -3.741088  0.012040
   scf:   27    -8513.587733    -8513.587704    -8513.657304  0.003054 -3.740216  0.007952
   scf:   28    -8513.587626    -8513.587672    -8513.657346  0.002597 -3.739260  0.008703
   scf:   29    -8513.587660    -8513.587666    -8513.657349  0.000200 -3.739313  0.008025
   scf:   30    -8513.587610    -8513.587639    -8513.657359  0.000463 -3.739829  0.005853
   scf:   31    -8513.587528    -8513.587586    -8513.657367  0.000673 -3.740492  0.003577
   scf:   32    -8513.587589    -8513.587588    -8513.657368  0.000089 -3.740479  0.003185
   scf:   33    -8513.587596    -8513.587592    -8513.657369  0.000151 -3.740547  0.002991
   scf:   34    -8513.587614    -8513.587603    -8513.657370  0.000245 -3.740579  0.002289
   scf:   35    -8513.587627    -8513.587615    -8513.657371  0.000329 -3.740668  0.001639
   scf:   36    -8513.587623    -8513.587619    -8513.657371  0.000104 -3.740635  0.001853
   scf:   37    -8513.587625    -8513.587622    -8513.657371  0.000138 -3.740603  0.002029
   scf:   38    -8513.587616    -8513.587619    -8513.657372  0.000096 -3.740637  0.001621
   scf:   39    -8513.587597    -8513.587608    -8513.657372  0.000171 -3.740618  0.001032
   scf:   40    -8513.587597    -8513.587602    -8513.657372  0.000153 -3.740536  0.000344

SCF Convergence by DM+H criterion
max |DM_out - DM_in|         :     0.0001529252
max |H_out - H_in|      (eV) :     0.0003444657
SCF cycle converged after 40 iterations

Using DM_out to compute the final energy and forces
No. of atoms with KB's overlaping orbs in proc 0. Max # of overlaps:       9      58

siesta: E_KS(eV) =            -8513.5876

siesta: Atomic forces (eV/Ang):
----------------------------------------
   Tot   -0.047930   -0.002995   -0.013585
----------------------------------------
   Max    4.669035
   Res    1.960247    sqrt( Sum f_i^2 / 3N )
----------------------------------------
   Max    4.669035    constrained

Stress tensor Voigt[x,y,z,yz,xz,xy] (kbar):       -0.72        0.32       -0.09       -0.22        0.04        1.17
(Free)E + p*V (eV/cell)    -8512.8463
Target enthalpy (eV/cell)    -8513.6574

siesta: Stress tensor (static) (eV/Ang**3):
         0.000357    0.000198   -0.000109
         0.000198    0.001256   -0.000163
        -0.000109   -0.000163    0.001331

siesta: Pressure (static):         -1.57236065  kBar

siesta: Stress tensor (total) (eV/Ang**3):
        -0.000450    0.000731    0.000027
         0.000731    0.000201   -0.000139
         0.000027   -0.000139   -0.000055

siesta: Pressure (total):          0.16244006  kBar

siesta: Temp_ion =    9725.453 K

coxmol: Writing XMOL coordinates into file output_sim3/simulacio3.xyz                                                                                                                                                                                                          

siesta: Program's energy decomposition (eV):
siesta: Ebs     =     -1490.326214
siesta: Eions   =     11676.786863
siesta: Ena     =      1580.255092
siesta: Ekin    =      3320.909300
siesta: Enl     =       -25.918350
siesta: Eso     =         0.000000
siesta: Edftu   =         0.000000
siesta: DEna    =        49.220548
siesta: DUscf   =         6.363304
siesta: DUext   =         0.000000
siesta: Ex      =     -1661.079199
siesta: Ec      =      -106.551435
siesta: Exc     =     -1767.630634
siesta: EbV     =         0.000000
siesta: eta*DQ  =         0.000000
siesta: Emadel  =         0.000000
siesta: Emeta   =         0.000000
siesta: Emolmec =         0.000000
siesta: Ekinion =        10.056897
siesta: Eharris =     -8503.530700
siesta: Etot    =     -8503.530706
siesta: FreeEng =     -8503.600476

siesta: Final energy (eV):
siesta:  Band Struct. =   -1490.326214
siesta:       Kinetic =    3320.909300
siesta:       Hartree =   10999.162316
siesta:         Edftu =       0.000000
siesta:       Eso     =       0.000000
siesta:    Ext. field =       0.000000
siesta:         Exch. =   -1661.079199
siesta:         Corr. =    -106.551435
siesta:     Bulk bias =       0.000000
siesta:   Exch.-corr. =   -1767.630634
siesta:  Ion-electron =  -25315.717428
siesta:       Ion-ion =    4249.688843
siesta:       Ekinion =      10.056897
siesta: D3 dispersion =       0.000000
siesta:         Total =   -8503.530706
siesta:         Fermi =      -3.740536

siesta: Atomic forces (eV/Ang):
siesta:      1    0.837133    4.669035    0.064806
siesta:      2   -3.813641   -1.354145    0.595326
siesta:      3   -0.520674    1.010059    1.382104
siesta:      4    0.921518    0.619866   -1.476505
siesta:      5    1.549631   -0.488346    0.944090
siesta:      6    1.217275   -4.355148   -0.374748
siesta:      7    3.717633   -0.831002   -1.464067
siesta:      8   -1.220475    1.059621    2.009926
siesta:      9   -2.736331   -0.332936   -1.694518
siesta: ----------------------------------------
siesta:    Tot   -0.047930   -0.002995   -0.013585

siesta: Stress tensor (static) (eV/Ang**3):
siesta:     0.000357    0.000198   -0.000109
siesta:     0.000198    0.001256   -0.000163
siesta:    -0.000109   -0.000163    0.001331

siesta: Cell volume =       8000.000000 Ang**3

siesta: Pressure (static):
siesta:                Solid            Molecule  Units
siesta:          -0.00001069          0.00000002  Ry/Bohr**3
siesta:          -0.00098139          0.00000204  eV/Ang**3
siesta:          -1.57236065          0.00326478  kBar
(Free)E+ p_basis*V_orbitals  =       -8511.523869
(Free)Eharris+ p_basis*V_orbitals  =       -8511.523864

siesta: Electric dipole (a.u.)  =   -1.138514   -3.449639   -3.269908
siesta: Electric dipole (Debye) =   -2.893813   -8.768109   -8.311277

cite: Please see "output_sim3/simulacio3.bib" for an exhaustive BiBTeX file.
cite: Please clearly indicate Siesta version in published work: 5.2.1
cite: This calculation has made use of the following articles
cite: which are encouraged to be cited in a published work.
        Primary SIESTA paper
          DOI: www.doi.org/10.1088/0953-8984/14/11/302


timer: Elapsed wall time (sec) =    1000.721
timer: CPU execution times (sec):

Routine            Calls   Time/call    Tot.time        %
siesta                 1    2428.585    2428.585   100.00
Setup                  1       1.223       1.223     0.05
bands                  1       0.000       0.000     0.00
KSV_init               1       0.000       0.000     0.00
IterGeom              50      48.547    2427.360    99.95
geom_init             50       1.164      58.192     2.40
state_init            50       0.012       0.620     0.03
hsparse               50       0.000       0.008     0.00
overlap               50       0.012       0.598     0.02
Setup_H0              50       0.561      28.074     1.16
naefs                100       0.000       0.005     0.00
dnaefs               100       0.000       0.003     0.00
MolMec               100       0.000       0.000     0.00
kinefsm              100       0.005       0.502     0.02
nlefsm               100       0.038       3.795     0.16
DHSCF_Init            50       0.481      24.025     0.99
DHSCF1                50       0.020       1.006     0.04
InitMesh              50       0.020       1.004     0.04
INITMESH              50       0.000       0.000     0.00
DHSCF2                50       0.460      23.020     0.95
REMESH                50       0.013       0.658     0.03
REORD               3836       0.047     181.731     7.48
PHION                 50       0.126       6.303     0.26
COMM_BSC            6322       0.029     185.270     7.63
POISON              1593       0.247     393.835    16.22
fft                 3186       0.091     290.273    11.95
setup_H             1493       1.560    2328.890    95.89
DHSCF               1543       1.534    2366.915    97.46
DHSCF3              1543       1.525    2352.871    96.88
rhoofd              1543       0.481     741.776    30.54
XC                  1543       0.176     271.853    11.19
GXC-CellXC          1543       0.148     227.899     9.38
gridxc@cellXC       1543       0.148     227.891     9.38
vmat                1543       0.017      26.874     1.11
IterSCF             1443       1.611    2325.292    95.75
compute_dm          1443       0.018      25.451     1.05
diagon              1443       0.018      25.295     1.04
r-eigvec            1443       0.011      16.094     0.66
r-buildHS           1443       0.000       0.013     0.00
rdiag               1443       0.011      16.065     0.66
rdiag1              1443       0.001       1.965     0.08
rdiag2              1443       0.002       2.267     0.09
rdiag3              1443       0.008      11.454     0.47
rdiag4              1443       0.000       0.303     0.01
r-buildD            1443       0.006       8.756     0.36
MIXER               1393       0.000       0.140     0.01
PostSCF               50       0.877      43.831     1.80
FINAL_HF              50       0.877      43.831     1.80
DHSCF4                50       0.281      14.032     0.58
dfscf                 50       0.159       7.947     0.33
overfsm               50       0.001       0.051     0.00
writeHSX              50       0.000       0.007     0.00
state_analysis        50       0.000       0.007     0.00
siesta_move           50       0.000       0.013     0.00
Analysis               1       0.000       0.000     0.00
optical                1       0.000       0.000     0.00
  

>> End of run:   2-JUL-2025   0:13:34
Job completed
Job completed
